+ 0.1 4 1 tcp 1000 ------- 2 4.0 7.0 0 0
- 0.1 4 1 tcp 1000 ------- 2 4.0 7.0 0 0
r 0.115333 4 1 tcp 1000 ------- 2 4.0 7.0 0 0
+ 0.115333 1 2 tcp 1000 ------- 2 4.0 7.0 0 0
- 0.115333 1 2 tcp 1000 ------- 2 4.0 7.0 0 0
r 0.122667 1 2 tcp 1000 ------- 2 4.0 7.0 0 0
+ 0.122667 2 7 tcp 1000 ------- 2 4.0 7.0 0 0
- 0.122667 2 7 tcp 1000 ------- 2 4.0 7.0 0 0
r 0.138 2 7 tcp 1000 ------- 2 4.0 7.0 0 0
+ 0.138 7 2 ack 40 ------- 2 7.0 4.0 0 1
- 0.138 7 2 ack 40 ------- 2 7.0 4.0 0 1
r 0.148213 7 2 ack 40 ------- 2 7.0 4.0 0 1
+ 0.148213 2 1 ack 40 ------- 2 7.0 4.0 0 1
- 0.148213 2 1 ack 40 ------- 2 7.0 4.0 0 1
r 0.150427 2 1 ack 40 ------- 2 7.0 4.0 0 1
+ 0.150427 1 4 ack 40 ------- 2 7.0 4.0 0 1
- 0.150427 1 4 ack 40 ------- 2 7.0 4.0 0 1
r 0.16064 1 4 ack 40 ------- 2 7.0 4.0 0 1
+ 0.16064 4 1 tcp 1000 ------- 2 4.0 7.0 1 2
- 0.16064 4 1 tcp 1000 ------- 2 4.0 7.0 1 2
r 0.175973 4 1 tcp 1000 ------- 2 4.0 7.0 1 2
+ 0.175973 1 2 tcp 1000 ------- 2 4.0 7.0 1 2
- 0.175973 1 2 tcp 1000 ------- 2 4.0 7.0 1 2
r 0.183307 1 2 tcp 1000 ------- 2 4.0 7.0 1 2
+ 0.183307 2 7 tcp 1000 ------- 2 4.0 7.0 1 2
- 0.183307 2 7 tcp 1000 ------- 2 4.0 7.0 1 2
r 0.19864 2 7 tcp 1000 ------- 2 4.0 7.0 1 2
+ 0.19864 7 2 ack 40 ------- 2 7.0 4.0 1 3
- 0.19864 7 2 ack 40 ------- 2 7.0 4.0 1 3
+ 0.2 5 2 tcp 40 ------- 3 5.0 6.2 0 4
- 0.2 5 2 tcp 40 ------- 3 5.0 6.2 0 4
r 0.208853 7 2 ack 40 ------- 2 7.0 4.0 1 3
+ 0.208853 2 1 ack 40 ------- 2 7.0 4.0 1 3
- 0.208853 2 1 ack 40 ------- 2 7.0 4.0 1 3
r 0.210213 5 2 tcp 40 ------- 3 5.0 6.2 0 4
+ 0.210213 2 1 tcp 40 ------- 3 5.0 6.2 0 4
- 0.210213 2 1 tcp 40 ------- 3 5.0 6.2 0 4
r 0.211067 2 1 ack 40 ------- 2 7.0 4.0 1 3
+ 0.211067 1 4 ack 40 ------- 2 7.0 4.0 1 3
- 0.211067 1 4 ack 40 ------- 2 7.0 4.0 1 3
r 0.212427 2 1 tcp 40 ------- 3 5.0 6.2 0 4
+ 0.212427 1 6 tcp 40 ------- 3 5.0 6.2 0 4
- 0.212427 1 6 tcp 40 ------- 3 5.0 6.2 0 4
r 0.22128 1 4 ack 40 ------- 2 7.0 4.0 1 3
+ 0.22128 4 1 tcp 1000 ------- 2 4.0 7.0 2 5
- 0.22128 4 1 tcp 1000 ------- 2 4.0 7.0 2 5
+ 0.22128 4 1 tcp 1000 ------- 2 4.0 7.0 3 6
+ 0.22128 4 1 tcp 1000 ------- 2 4.0 7.0 4 7
r 0.22264 1 6 tcp 40 ------- 3 5.0 6.2 0 4
+ 0.22264 6 1 ack 40 ------- 3 6.2 5.0 0 8
- 0.22264 6 1 ack 40 ------- 3 6.2 5.0 0 8
- 0.226613 4 1 tcp 1000 ------- 2 4.0 7.0 3 6
- 0.231947 4 1 tcp 1000 ------- 2 4.0 7.0 4 7
r 0.232853 6 1 ack 40 ------- 3 6.2 5.0 0 8
+ 0.232853 1 2 ack 40 ------- 3 6.2 5.0 0 8
- 0.232853 1 2 ack 40 ------- 3 6.2 5.0 0 8
r 0.235067 1 2 ack 40 ------- 3 6.2 5.0 0 8
+ 0.235067 2 5 ack 40 ------- 3 6.2 5.0 0 8
- 0.235067 2 5 ack 40 ------- 3 6.2 5.0 0 8
r 0.236613 4 1 tcp 1000 ------- 2 4.0 7.0 2 5
+ 0.236613 1 2 tcp 1000 ------- 2 4.0 7.0 2 5
- 0.236613 1 2 tcp 1000 ------- 2 4.0 7.0 2 5
r 0.241947 4 1 tcp 1000 ------- 2 4.0 7.0 3 6
+ 0.241947 1 2 tcp 1000 ------- 2 4.0 7.0 3 6
- 0.241947 1 2 tcp 1000 ------- 2 4.0 7.0 3 6
r 0.243947 1 2 tcp 1000 ------- 2 4.0 7.0 2 5
+ 0.243947 2 7 tcp 1000 ------- 2 4.0 7.0 2 5
- 0.243947 2 7 tcp 1000 ------- 2 4.0 7.0 2 5
r 0.24528 2 5 ack 40 ------- 3 6.2 5.0 0 8
+ 0.24528 5 2 tcp 1040 ------- 3 5.0 6.2 1 9
- 0.24528 5 2 tcp 1040 ------- 3 5.0 6.2 1 9
+ 0.24528 5 2 tcp 1040 ------- 3 5.0 6.2 2 10
r 0.24728 4 1 tcp 1000 ------- 2 4.0 7.0 4 7
+ 0.24728 1 2 tcp 1000 ------- 2 4.0 7.0 4 7
- 0.24728 1 2 tcp 1000 ------- 2 4.0 7.0 4 7
r 0.24928 1 2 tcp 1000 ------- 2 4.0 7.0 3 6
+ 0.24928 2 7 tcp 1000 ------- 2 4.0 7.0 3 6
- 0.24928 2 7 tcp 1000 ------- 2 4.0 7.0 3 6
- 0.250827 5 2 tcp 1040 ------- 3 5.0 6.2 2 10
r 0.254613 1 2 tcp 1000 ------- 2 4.0 7.0 4 7
+ 0.254613 2 7 tcp 1000 ------- 2 4.0 7.0 4 7
- 0.254613 2 7 tcp 1000 ------- 2 4.0 7.0 4 7
r 0.25928 2 7 tcp 1000 ------- 2 4.0 7.0 2 5
+ 0.25928 7 2 ack 40 ------- 2 7.0 4.0 2 11
- 0.25928 7 2 ack 40 ------- 2 7.0 4.0 2 11
r 0.260827 5 2 tcp 1040 ------- 3 5.0 6.2 1 9
+ 0.260827 2 1 tcp 1040 ------- 3 5.0 6.2 1 9
- 0.260827 2 1 tcp 1040 ------- 3 5.0 6.2 1 9
r 0.264613 2 7 tcp 1000 ------- 2 4.0 7.0 3 6
+ 0.264613 7 2 ack 40 ------- 2 7.0 4.0 3 12
- 0.264613 7 2 ack 40 ------- 2 7.0 4.0 3 12
r 0.266373 5 2 tcp 1040 ------- 3 5.0 6.2 2 10
+ 0.266373 2 1 tcp 1040 ------- 3 5.0 6.2 2 10
- 0.266373 2 1 tcp 1040 ------- 3 5.0 6.2 2 10
r 0.268373 2 1 tcp 1040 ------- 3 5.0 6.2 1 9
+ 0.268373 1 6 tcp 1040 ------- 3 5.0 6.2 1 9
- 0.268373 1 6 tcp 1040 ------- 3 5.0 6.2 1 9
r 0.269493 7 2 ack 40 ------- 2 7.0 4.0 2 11
+ 0.269493 2 1 ack 40 ------- 2 7.0 4.0 2 11
r 0.269947 2 7 tcp 1000 ------- 2 4.0 7.0 4 7
+ 0.269947 7 2 ack 40 ------- 2 7.0 4.0 4 13
- 0.269947 7 2 ack 40 ------- 2 7.0 4.0 4 13
- 0.27192 2 1 ack 40 ------- 2 7.0 4.0 2 11
r 0.27392 2 1 tcp 1040 ------- 3 5.0 6.2 2 10
+ 0.27392 1 6 tcp 1040 ------- 3 5.0 6.2 2 10
- 0.27392 1 6 tcp 1040 ------- 3 5.0 6.2 2 10
r 0.274133 2 1 ack 40 ------- 2 7.0 4.0 2 11
+ 0.274133 1 4 ack 40 ------- 2 7.0 4.0 2 11
- 0.274133 1 4 ack 40 ------- 2 7.0 4.0 2 11
r 0.274827 7 2 ack 40 ------- 2 7.0 4.0 3 12
+ 0.274827 2 1 ack 40 ------- 2 7.0 4.0 3 12
- 0.274827 2 1 ack 40 ------- 2 7.0 4.0 3 12
r 0.27704 2 1 ack 40 ------- 2 7.0 4.0 3 12
+ 0.27704 1 4 ack 40 ------- 2 7.0 4.0 3 12
- 0.27704 1 4 ack 40 ------- 2 7.0 4.0 3 12
r 0.28016 7 2 ack 40 ------- 2 7.0 4.0 4 13
+ 0.28016 2 1 ack 40 ------- 2 7.0 4.0 4 13
- 0.28016 2 1 ack 40 ------- 2 7.0 4.0 4 13
r 0.282373 2 1 ack 40 ------- 2 7.0 4.0 4 13
+ 0.282373 1 4 ack 40 ------- 2 7.0 4.0 4 13
- 0.282373 1 4 ack 40 ------- 2 7.0 4.0 4 13
r 0.28392 1 6 tcp 1040 ------- 3 5.0 6.2 1 9
+ 0.28392 6 1 ack 40 ------- 3 6.2 5.0 1 14
- 0.28392 6 1 ack 40 ------- 3 6.2 5.0 1 14
r 0.284347 1 4 ack 40 ------- 2 7.0 4.0 2 11
+ 0.284347 4 1 tcp 1000 ------- 2 4.0 7.0 5 15
- 0.284347 4 1 tcp 1000 ------- 2 4.0 7.0 5 15
r 0.287253 1 4 ack 40 ------- 2 7.0 4.0 3 12
+ 0.287253 4 1 tcp 1000 ------- 2 4.0 7.0 6 16
r 0.289467 1 6 tcp 1040 ------- 3 5.0 6.2 2 10
+ 0.289467 6 1 ack 40 ------- 3 6.2 5.0 2 17
- 0.289467 6 1 ack 40 ------- 3 6.2 5.0 2 17
- 0.28968 4 1 tcp 1000 ------- 2 4.0 7.0 6 16
r 0.292587 1 4 ack 40 ------- 2 7.0 4.0 4 13
+ 0.292587 4 1 tcp 1000 ------- 2 4.0 7.0 7 18
r 0.294133 6 1 ack 40 ------- 3 6.2 5.0 1 14
+ 0.294133 1 2 ack 40 ------- 3 6.2 5.0 1 14
- 0.294133 1 2 ack 40 ------- 3 6.2 5.0 1 14
- 0.295013 4 1 tcp 1000 ------- 2 4.0 7.0 7 18
r 0.296347 1 2 ack 40 ------- 3 6.2 5.0 1 14
+ 0.296347 2 5 ack 40 ------- 3 6.2 5.0 1 14
- 0.296347 2 5 ack 40 ------- 3 6.2 5.0 1 14
r 0.29968 4 1 tcp 1000 ------- 2 4.0 7.0 5 15
+ 0.29968 1 2 tcp 1000 ------- 2 4.0 7.0 5 15
- 0.29968 1 2 tcp 1000 ------- 2 4.0 7.0 5 15
r 0.29968 6 1 ack 40 ------- 3 6.2 5.0 2 17
+ 0.29968 1 2 ack 40 ------- 3 6.2 5.0 2 17
r 0.305013 4 1 tcp 1000 ------- 2 4.0 7.0 6 16
+ 0.305013 1 2 tcp 1000 ------- 2 4.0 7.0 6 16
- 0.305013 1 2 ack 40 ------- 3 6.2 5.0 2 17
- 0.305227 1 2 tcp 1000 ------- 2 4.0 7.0 6 16
r 0.30656 2 5 ack 40 ------- 3 6.2 5.0 1 14
+ 0.30656 5 2 tcp 1040 ------- 3 5.0 6.2 3 19
- 0.30656 5 2 tcp 1040 ------- 3 5.0 6.2 3 19
+ 0.30656 5 2 tcp 1040 ------- 3 5.0 6.2 4 20
r 0.307013 1 2 tcp 1000 ------- 2 4.0 7.0 5 15
+ 0.307013 2 7 tcp 1000 ------- 2 4.0 7.0 5 15
- 0.307013 2 7 tcp 1000 ------- 2 4.0 7.0 5 15
r 0.307227 1 2 ack 40 ------- 3 6.2 5.0 2 17
+ 0.307227 2 5 ack 40 ------- 3 6.2 5.0 2 17
- 0.307227 2 5 ack 40 ------- 3 6.2 5.0 2 17
r 0.310347 4 1 tcp 1000 ------- 2 4.0 7.0 7 18
+ 0.310347 1 2 tcp 1000 ------- 2 4.0 7.0 7 18
- 0.31056 1 2 tcp 1000 ------- 2 4.0 7.0 7 18
- 0.312107 5 2 tcp 1040 ------- 3 5.0 6.2 4 20
r 0.31256 1 2 tcp 1000 ------- 2 4.0 7.0 6 16
+ 0.31256 2 7 tcp 1000 ------- 2 4.0 7.0 6 16
- 0.31256 2 7 tcp 1000 ------- 2 4.0 7.0 6 16
r 0.31744 2 5 ack 40 ------- 3 6.2 5.0 2 17
+ 0.31744 5 2 tcp 1040 ------- 3 5.0 6.2 5 21
+ 0.31744 5 2 tcp 1040 ------- 3 5.0 6.2 6 22
- 0.317653 5 2 tcp 1040 ------- 3 5.0 6.2 5 21
r 0.317893 1 2 tcp 1000 ------- 2 4.0 7.0 7 18
+ 0.317893 2 7 tcp 1000 ------- 2 4.0 7.0 7 18
- 0.317893 2 7 tcp 1000 ------- 2 4.0 7.0 7 18
r 0.322107 5 2 tcp 1040 ------- 3 5.0 6.2 3 19
+ 0.322107 2 1 tcp 1040 ------- 3 5.0 6.2 3 19
- 0.322107 2 1 tcp 1040 ------- 3 5.0 6.2 3 19
r 0.322347 2 7 tcp 1000 ------- 2 4.0 7.0 5 15
+ 0.322347 7 2 ack 40 ------- 2 7.0 4.0 5 23
- 0.322347 7 2 ack 40 ------- 2 7.0 4.0 5 23
- 0.3232 5 2 tcp 1040 ------- 3 5.0 6.2 6 22
r 0.327653 5 2 tcp 1040 ------- 3 5.0 6.2 4 20
+ 0.327653 2 1 tcp 1040 ------- 3 5.0 6.2 4 20
- 0.327653 2 1 tcp 1040 ------- 3 5.0 6.2 4 20
r 0.327893 2 7 tcp 1000 ------- 2 4.0 7.0 6 16
+ 0.327893 7 2 ack 40 ------- 2 7.0 4.0 6 24
- 0.327893 7 2 ack 40 ------- 2 7.0 4.0 6 24
r 0.329653 2 1 tcp 1040 ------- 3 5.0 6.2 3 19
+ 0.329653 1 6 tcp 1040 ------- 3 5.0 6.2 3 19
- 0.329653 1 6 tcp 1040 ------- 3 5.0 6.2 3 19
r 0.33256 7 2 ack 40 ------- 2 7.0 4.0 5 23
+ 0.33256 2 1 ack 40 ------- 2 7.0 4.0 5 23
r 0.3332 5 2 tcp 1040 ------- 3 5.0 6.2 5 21
+ 0.3332 2 1 tcp 1040 ------- 3 5.0 6.2 5 21
- 0.3332 2 1 ack 40 ------- 2 7.0 4.0 5 23
r 0.333227 2 7 tcp 1000 ------- 2 4.0 7.0 7 18
+ 0.333227 7 2 ack 40 ------- 2 7.0 4.0 7 25
- 0.333227 7 2 ack 40 ------- 2 7.0 4.0 7 25
- 0.333413 2 1 tcp 1040 ------- 3 5.0 6.2 5 21
r 0.3352 2 1 tcp 1040 ------- 3 5.0 6.2 4 20
+ 0.3352 1 6 tcp 1040 ------- 3 5.0 6.2 4 20
- 0.3352 1 6 tcp 1040 ------- 3 5.0 6.2 4 20
r 0.335413 2 1 ack 40 ------- 2 7.0 4.0 5 23
+ 0.335413 1 4 ack 40 ------- 2 7.0 4.0 5 23
- 0.335413 1 4 ack 40 ------- 2 7.0 4.0 5 23
r 0.338107 7 2 ack 40 ------- 2 7.0 4.0 6 24
+ 0.338107 2 1 ack 40 ------- 2 7.0 4.0 6 24
r 0.338747 5 2 tcp 1040 ------- 3 5.0 6.2 6 22
+ 0.338747 2 1 tcp 1040 ------- 3 5.0 6.2 6 22
- 0.33896 2 1 ack 40 ------- 2 7.0 4.0 6 24
- 0.339173 2 1 tcp 1040 ------- 3 5.0 6.2 6 22
r 0.34096 2 1 tcp 1040 ------- 3 5.0 6.2 5 21
+ 0.34096 1 6 tcp 1040 ------- 3 5.0 6.2 5 21
- 0.34096 1 6 tcp 1040 ------- 3 5.0 6.2 5 21
r 0.341173 2 1 ack 40 ------- 2 7.0 4.0 6 24
+ 0.341173 1 4 ack 40 ------- 2 7.0 4.0 6 24
- 0.341173 1 4 ack 40 ------- 2 7.0 4.0 6 24
r 0.34344 7 2 ack 40 ------- 2 7.0 4.0 7 25
+ 0.34344 2 1 ack 40 ------- 2 7.0 4.0 7 25
- 0.34472 2 1 ack 40 ------- 2 7.0 4.0 7 25
r 0.3452 1 6 tcp 1040 ------- 3 5.0 6.2 3 19
+ 0.3452 6 1 ack 40 ------- 3 6.2 5.0 3 26
- 0.3452 6 1 ack 40 ------- 3 6.2 5.0 3 26
r 0.345627 1 4 ack 40 ------- 2 7.0 4.0 5 23
+ 0.345627 4 1 tcp 1000 ------- 2 4.0 7.0 8 27
- 0.345627 4 1 tcp 1000 ------- 2 4.0 7.0 8 27
+ 0.345627 4 1 tcp 1000 ------- 2 4.0 7.0 9 28
r 0.34672 2 1 tcp 1040 ------- 3 5.0 6.2 6 22
+ 0.34672 1 6 tcp 1040 ------- 3 5.0 6.2 6 22
- 0.34672 1 6 tcp 1040 ------- 3 5.0 6.2 6 22
r 0.346933 2 1 ack 40 ------- 2 7.0 4.0 7 25
+ 0.346933 1 4 ack 40 ------- 2 7.0 4.0 7 25
- 0.346933 1 4 ack 40 ------- 2 7.0 4.0 7 25
r 0.350747 1 6 tcp 1040 ------- 3 5.0 6.2 4 20
+ 0.350747 6 1 ack 40 ------- 3 6.2 5.0 4 29
- 0.350747 6 1 ack 40 ------- 3 6.2 5.0 4 29
- 0.35096 4 1 tcp 1000 ------- 2 4.0 7.0 9 28
r 0.351387 1 4 ack 40 ------- 2 7.0 4.0 6 24
+ 0.351387 4 1 tcp 1000 ------- 2 4.0 7.0 10 30
+ 0.351387 4 1 tcp 1000 ------- 2 4.0 7.0 11 31
r 0.355413 6 1 ack 40 ------- 3 6.2 5.0 3 26
+ 0.355413 1 2 ack 40 ------- 3 6.2 5.0 3 26
- 0.355413 1 2 ack 40 ------- 3 6.2 5.0 3 26
- 0.356293 4 1 tcp 1000 ------- 2 4.0 7.0 10 30
r 0.356507 1 6 tcp 1040 ------- 3 5.0 6.2 5 21
+ 0.356507 6 1 ack 40 ------- 3 6.2 5.0 5 32
- 0.356507 6 1 ack 40 ------- 3 6.2 5.0 5 32
r 0.357147 1 4 ack 40 ------- 2 7.0 4.0 7 25
+ 0.357147 4 1 tcp 1000 ------- 2 4.0 7.0 12 33
+ 0.357147 4 1 tcp 1000 ------- 2 4.0 7.0 13 34
r 0.357627 1 2 ack 40 ------- 3 6.2 5.0 3 26
+ 0.357627 2 5 ack 40 ------- 3 6.2 5.0 3 26
- 0.357627 2 5 ack 40 ------- 3 6.2 5.0 3 26
r 0.36096 4 1 tcp 1000 ------- 2 4.0 7.0 8 27
+ 0.36096 1 2 tcp 1000 ------- 2 4.0 7.0 8 27
- 0.36096 1 2 tcp 1000 ------- 2 4.0 7.0 8 27
r 0.36096 6 1 ack 40 ------- 3 6.2 5.0 4 29
+ 0.36096 1 2 ack 40 ------- 3 6.2 5.0 4 29
- 0.361627 4 1 tcp 1000 ------- 2 4.0 7.0 11 31
r 0.362267 1 6 tcp 1040 ------- 3 5.0 6.2 6 22
+ 0.362267 6 1 ack 40 ------- 3 6.2 5.0 6 35
- 0.362267 6 1 ack 40 ------- 3 6.2 5.0 6 35
r 0.366293 4 1 tcp 1000 ------- 2 4.0 7.0 9 28
+ 0.366293 1 2 tcp 1000 ------- 2 4.0 7.0 9 28
- 0.366293 1 2 ack 40 ------- 3 6.2 5.0 4 29
- 0.366507 1 2 tcp 1000 ------- 2 4.0 7.0 9 28
r 0.36672 6 1 ack 40 ------- 3 6.2 5.0 5 32
+ 0.36672 1 2 ack 40 ------- 3 6.2 5.0 5 32
- 0.36696 4 1 tcp 1000 ------- 2 4.0 7.0 12 33
r 0.36784 2 5 ack 40 ------- 3 6.2 5.0 3 26
+ 0.36784 5 2 tcp 1040 ------- 3 5.0 6.2 7 36
- 0.36784 5 2 tcp 1040 ------- 3 5.0 6.2 7 36
+ 0.36784 5 2 tcp 1040 ------- 3 5.0 6.2 8 37
r 0.368293 1 2 tcp 1000 ------- 2 4.0 7.0 8 27
+ 0.368293 2 7 tcp 1000 ------- 2 4.0 7.0 8 27
- 0.368293 2 7 tcp 1000 ------- 2 4.0 7.0 8 27
r 0.368507 1 2 ack 40 ------- 3 6.2 5.0 4 29
+ 0.368507 2 5 ack 40 ------- 3 6.2 5.0 4 29
- 0.368507 2 5 ack 40 ------- 3 6.2 5.0 4 29
r 0.371627 4 1 tcp 1000 ------- 2 4.0 7.0 10 30
+ 0.371627 1 2 tcp 1000 ------- 2 4.0 7.0 10 30
- 0.37184 1 2 ack 40 ------- 3 6.2 5.0 5 32
- 0.372053 1 2 tcp 1000 ------- 2 4.0 7.0 10 30
- 0.372293 4 1 tcp 1000 ------- 2 4.0 7.0 13 34
r 0.37248 6 1 ack 40 ------- 3 6.2 5.0 6 35
+ 0.37248 1 2 ack 40 ------- 3 6.2 5.0 6 35
- 0.373387 5 2 tcp 1040 ------- 3 5.0 6.2 8 37
r 0.37384 1 2 tcp 1000 ------- 2 4.0 7.0 9 28
+ 0.37384 2 7 tcp 1000 ------- 2 4.0 7.0 9 28
- 0.37384 2 7 tcp 1000 ------- 2 4.0 7.0 9 28
r 0.374053 1 2 ack 40 ------- 3 6.2 5.0 5 32
+ 0.374053 2 5 ack 40 ------- 3 6.2 5.0 5 32
- 0.374053 2 5 ack 40 ------- 3 6.2 5.0 5 32
r 0.37696 4 1 tcp 1000 ------- 2 4.0 7.0 11 31
+ 0.37696 1 2 tcp 1000 ------- 2 4.0 7.0 11 31
- 0.377387 1 2 ack 40 ------- 3 6.2 5.0 6 35
- 0.3776 1 2 tcp 1000 ------- 2 4.0 7.0 11 31
r 0.37872 2 5 ack 40 ------- 3 6.2 5.0 4 29
+ 0.37872 5 2 tcp 1040 ------- 3 5.0 6.2 9 38
+ 0.37872 5 2 tcp 1040 ------- 3 5.0 6.2 10 39
- 0.378933 5 2 tcp 1040 ------- 3 5.0 6.2 9 38
r 0.379387 1 2 tcp 1000 ------- 2 4.0 7.0 10 30
+ 0.379387 2 7 tcp 1000 ------- 2 4.0 7.0 10 30
- 0.379387 2 7 tcp 1000 ------- 2 4.0 7.0 10 30
r 0.3796 1 2 ack 40 ------- 3 6.2 5.0 6 35
+ 0.3796 2 5 ack 40 ------- 3 6.2 5.0 6 35
- 0.3796 2 5 ack 40 ------- 3 6.2 5.0 6 35
r 0.382293 4 1 tcp 1000 ------- 2 4.0 7.0 12 33
+ 0.382293 1 2 tcp 1000 ------- 2 4.0 7.0 12 33
- 0.382933 1 2 tcp 1000 ------- 2 4.0 7.0 12 33
r 0.383387 5 2 tcp 1040 ------- 3 5.0 6.2 7 36
+ 0.383387 2 1 tcp 1040 ------- 3 5.0 6.2 7 36
- 0.383387 2 1 tcp 1040 ------- 3 5.0 6.2 7 36
r 0.383627 2 7 tcp 1000 ------- 2 4.0 7.0 8 27
+ 0.383627 7 2 ack 40 ------- 2 7.0 4.0 8 40
- 0.383627 7 2 ack 40 ------- 2 7.0 4.0 8 40
r 0.384267 2 5 ack 40 ------- 3 6.2 5.0 5 32
+ 0.384267 5 2 tcp 1040 ------- 3 5.0 6.2 11 41
+ 0.384267 5 2 tcp 1040 ------- 3 5.0 6.2 12 42
- 0.38448 5 2 tcp 1040 ------- 3 5.0 6.2 10 39
r 0.384933 1 2 tcp 1000 ------- 2 4.0 7.0 11 31
+ 0.384933 2 7 tcp 1000 ------- 2 4.0 7.0 11 31
- 0.384933 2 7 tcp 1000 ------- 2 4.0 7.0 11 31
r 0.387627 4 1 tcp 1000 ------- 2 4.0 7.0 13 34
+ 0.387627 1 2 tcp 1000 ------- 2 4.0 7.0 13 34
- 0.388267 1 2 tcp 1000 ------- 2 4.0 7.0 13 34
r 0.388933 5 2 tcp 1040 ------- 3 5.0 6.2 8 37
+ 0.388933 2 1 tcp 1040 ------- 3 5.0 6.2 8 37
- 0.388933 2 1 tcp 1040 ------- 3 5.0 6.2 8 37
r 0.389173 2 7 tcp 1000 ------- 2 4.0 7.0 9 28
+ 0.389173 7 2 ack 40 ------- 2 7.0 4.0 9 43
- 0.389173 7 2 ack 40 ------- 2 7.0 4.0 9 43
r 0.389813 2 5 ack 40 ------- 3 6.2 5.0 6 35
+ 0.389813 5 2 tcp 1040 ------- 3 5.0 6.2 13 44
+ 0.389813 5 2 tcp 1040 ------- 3 5.0 6.2 14 45
- 0.390027 5 2 tcp 1040 ------- 3 5.0 6.2 11 41
r 0.390267 1 2 tcp 1000 ------- 2 4.0 7.0 12 33
+ 0.390267 2 7 tcp 1000 ------- 2 4.0 7.0 12 33
- 0.390267 2 7 tcp 1000 ------- 2 4.0 7.0 12 33
r 0.390933 2 1 tcp 1040 ------- 3 5.0 6.2 7 36
+ 0.390933 1 6 tcp 1040 ------- 3 5.0 6.2 7 36
- 0.390933 1 6 tcp 1040 ------- 3 5.0 6.2 7 36
r 0.39384 7 2 ack 40 ------- 2 7.0 4.0 8 40
+ 0.39384 2 1 ack 40 ------- 2 7.0 4.0 8 40
r 0.39448 5 2 tcp 1040 ------- 3 5.0 6.2 9 38
+ 0.39448 2 1 tcp 1040 ------- 3 5.0 6.2 9 38
- 0.39448 2 1 ack 40 ------- 2 7.0 4.0 8 40
- 0.394693 2 1 tcp 1040 ------- 3 5.0 6.2 9 38
r 0.39472 2 7 tcp 1000 ------- 2 4.0 7.0 10 30
+ 0.39472 7 2 ack 40 ------- 2 7.0 4.0 10 46
- 0.39472 7 2 ack 40 ------- 2 7.0 4.0 10 46
- 0.395573 5 2 tcp 1040 ------- 3 5.0 6.2 12 42
r 0.3956 1 2 tcp 1000 ------- 2 4.0 7.0 13 34
+ 0.3956 2 7 tcp 1000 ------- 2 4.0 7.0 13 34
- 0.3956 2 7 tcp 1000 ------- 2 4.0 7.0 13 34
r 0.39648 2 1 tcp 1040 ------- 3 5.0 6.2 8 37
+ 0.39648 1 6 tcp 1040 ------- 3 5.0 6.2 8 37
- 0.39648 1 6 tcp 1040 ------- 3 5.0 6.2 8 37
r 0.396693 2 1 ack 40 ------- 2 7.0 4.0 8 40
+ 0.396693 1 4 ack 40 ------- 2 7.0 4.0 8 40
- 0.396693 1 4 ack 40 ------- 2 7.0 4.0 8 40
r 0.399387 7 2 ack 40 ------- 2 7.0 4.0 9 43
+ 0.399387 2 1 ack 40 ------- 2 7.0 4.0 9 43
r 0.400027 5 2 tcp 1040 ------- 3 5.0 6.2 10 39
+ 0.400027 2 1 tcp 1040 ------- 3 5.0 6.2 10 39
- 0.40024 2 1 ack 40 ------- 2 7.0 4.0 9 43
r 0.400267 2 7 tcp 1000 ------- 2 4.0 7.0 11 31
+ 0.400267 7 2 ack 40 ------- 2 7.0 4.0 11 47
- 0.400267 7 2 ack 40 ------- 2 7.0 4.0 11 47
- 0.400453 2 1 tcp 1040 ------- 3 5.0 6.2 10 39
- 0.40112 5 2 tcp 1040 ------- 3 5.0 6.2 13 44
r 0.40224 2 1 tcp 1040 ------- 3 5.0 6.2 9 38
+ 0.40224 1 6 tcp 1040 ------- 3 5.0 6.2 9 38
- 0.40224 1 6 tcp 1040 ------- 3 5.0 6.2 9 38
r 0.402453 2 1 ack 40 ------- 2 7.0 4.0 9 43
+ 0.402453 1 4 ack 40 ------- 2 7.0 4.0 9 43
- 0.402453 1 4 ack 40 ------- 2 7.0 4.0 9 43
r 0.404933 7 2 ack 40 ------- 2 7.0 4.0 10 46
+ 0.404933 2 1 ack 40 ------- 2 7.0 4.0 10 46
r 0.405573 5 2 tcp 1040 ------- 3 5.0 6.2 11 41
+ 0.405573 2 1 tcp 1040 ------- 3 5.0 6.2 11 41
r 0.4056 2 7 tcp 1000 ------- 2 4.0 7.0 12 33
+ 0.4056 7 2 ack 40 ------- 2 7.0 4.0 12 48
- 0.4056 7 2 ack 40 ------- 2 7.0 4.0 12 48
- 0.406 2 1 ack 40 ------- 2 7.0 4.0 10 46
- 0.406213 2 1 tcp 1040 ------- 3 5.0 6.2 11 41
r 0.40648 1 6 tcp 1040 ------- 3 5.0 6.2 7 36
+ 0.40648 6 1 ack 40 ------- 3 6.2 5.0 7 49
- 0.40648 6 1 ack 40 ------- 3 6.2 5.0 7 49
- 0.406667 5 2 tcp 1040 ------- 3 5.0 6.2 14 45
r 0.406907 1 4 ack 40 ------- 2 7.0 4.0 8 40
+ 0.406907 4 1 tcp 1000 ------- 2 4.0 7.0 14 50
- 0.406907 4 1 tcp 1000 ------- 2 4.0 7.0 14 50
r 0.408 2 1 tcp 1040 ------- 3 5.0 6.2 10 39
+ 0.408 1 6 tcp 1040 ------- 3 5.0 6.2 10 39
- 0.408 1 6 tcp 1040 ------- 3 5.0 6.2 10 39
r 0.408213 2 1 ack 40 ------- 2 7.0 4.0 10 46
+ 0.408213 1 4 ack 40 ------- 2 7.0 4.0 10 46
- 0.408213 1 4 ack 40 ------- 2 7.0 4.0 10 46
r 0.41048 7 2 ack 40 ------- 2 7.0 4.0 11 47
+ 0.41048 2 1 ack 40 ------- 2 7.0 4.0 11 47
r 0.410933 2 7 tcp 1000 ------- 2 4.0 7.0 13 34
+ 0.410933 7 2 ack 40 ------- 2 7.0 4.0 13 51
- 0.410933 7 2 ack 40 ------- 2 7.0 4.0 13 51
r 0.41112 5 2 tcp 1040 ------- 3 5.0 6.2 12 42
+ 0.41112 2 1 tcp 1040 ------- 3 5.0 6.2 12 42
- 0.41176 2 1 ack 40 ------- 2 7.0 4.0 11 47
- 0.411973 2 1 tcp 1040 ------- 3 5.0 6.2 12 42
r 0.412027 1 6 tcp 1040 ------- 3 5.0 6.2 8 37
+ 0.412027 6 1 ack 40 ------- 3 6.2 5.0 8 52
- 0.412027 6 1 ack 40 ------- 3 6.2 5.0 8 52
r 0.412667 1 4 ack 40 ------- 2 7.0 4.0 9 43
+ 0.412667 4 1 tcp 1000 ------- 2 4.0 7.0 15 53
- 0.412667 4 1 tcp 1000 ------- 2 4.0 7.0 15 53
r 0.41376 2 1 tcp 1040 ------- 3 5.0 6.2 11 41
+ 0.41376 1 6 tcp 1040 ------- 3 5.0 6.2 11 41
- 0.41376 1 6 tcp 1040 ------- 3 5.0 6.2 11 41
r 0.413973 2 1 ack 40 ------- 2 7.0 4.0 11 47
+ 0.413973 1 4 ack 40 ------- 2 7.0 4.0 11 47
- 0.413973 1 4 ack 40 ------- 2 7.0 4.0 11 47
r 0.415813 7 2 ack 40 ------- 2 7.0 4.0 12 48
+ 0.415813 2 1 ack 40 ------- 2 7.0 4.0 12 48
r 0.416667 5 2 tcp 1040 ------- 3 5.0 6.2 13 44
+ 0.416667 2 1 tcp 1040 ------- 3 5.0 6.2 13 44
r 0.416693 6 1 ack 40 ------- 3 6.2 5.0 7 49
+ 0.416693 1 2 ack 40 ------- 3 6.2 5.0 7 49
- 0.416693 1 2 ack 40 ------- 3 6.2 5.0 7 49
- 0.41752 2 1 ack 40 ------- 2 7.0 4.0 12 48
- 0.417733 2 1 tcp 1040 ------- 3 5.0 6.2 13 44
r 0.417787 1 6 tcp 1040 ------- 3 5.0 6.2 9 38
+ 0.417787 6 1 ack 40 ------- 3 6.2 5.0 9 54
- 0.417787 6 1 ack 40 ------- 3 6.2 5.0 9 54
r 0.418427 1 4 ack 40 ------- 2 7.0 4.0 10 46
+ 0.418427 4 1 tcp 1000 ------- 2 4.0 7.0 16 55
- 0.418427 4 1 tcp 1000 ------- 2 4.0 7.0 16 55
r 0.418907 1 2 ack 40 ------- 3 6.2 5.0 7 49
+ 0.418907 2 5 ack 40 ------- 3 6.2 5.0 7 49
- 0.418907 2 5 ack 40 ------- 3 6.2 5.0 7 49
r 0.41952 2 1 tcp 1040 ------- 3 5.0 6.2 12 42
+ 0.41952 1 6 tcp 1040 ------- 3 5.0 6.2 12 42
- 0.41952 1 6 tcp 1040 ------- 3 5.0 6.2 12 42
r 0.419733 2 1 ack 40 ------- 2 7.0 4.0 12 48
+ 0.419733 1 4 ack 40 ------- 2 7.0 4.0 12 48
- 0.419733 1 4 ack 40 ------- 2 7.0 4.0 12 48
r 0.421147 7 2 ack 40 ------- 2 7.0 4.0 13 51
+ 0.421147 2 1 ack 40 ------- 2 7.0 4.0 13 51
r 0.422213 5 2 tcp 1040 ------- 3 5.0 6.2 14 45
+ 0.422213 2 1 tcp 1040 ------- 3 5.0 6.2 14 45
r 0.42224 4 1 tcp 1000 ------- 2 4.0 7.0 14 50
+ 0.42224 1 2 tcp 1000 ------- 2 4.0 7.0 14 50
- 0.42224 1 2 tcp 1000 ------- 2 4.0 7.0 14 50
r 0.42224 6 1 ack 40 ------- 3 6.2 5.0 8 52
+ 0.42224 1 2 ack 40 ------- 3 6.2 5.0 8 52
- 0.42328 2 1 ack 40 ------- 2 7.0 4.0 13 51
- 0.423493 2 1 tcp 1040 ------- 3 5.0 6.2 14 45
r 0.423547 1 6 tcp 1040 ------- 3 5.0 6.2 10 39
+ 0.423547 6 1 ack 40 ------- 3 6.2 5.0 10 56
- 0.423547 6 1 ack 40 ------- 3 6.2 5.0 10 56
r 0.424187 1 4 ack 40 ------- 2 7.0 4.0 11 47
+ 0.424187 4 1 tcp 1000 ------- 2 4.0 7.0 17 57
- 0.424187 4 1 tcp 1000 ------- 2 4.0 7.0 17 57
r 0.42528 2 1 tcp 1040 ------- 3 5.0 6.2 13 44
+ 0.42528 1 6 tcp 1040 ------- 3 5.0 6.2 13 44
- 0.42528 1 6 tcp 1040 ------- 3 5.0 6.2 13 44
r 0.425493 2 1 ack 40 ------- 2 7.0 4.0 13 51
+ 0.425493 1 4 ack 40 ------- 2 7.0 4.0 13 51
- 0.425493 1 4 ack 40 ------- 2 7.0 4.0 13 51
- 0.427573 1 2 ack 40 ------- 3 6.2 5.0 8 52
r 0.428 4 1 tcp 1000 ------- 2 4.0 7.0 15 53
+ 0.428 1 2 tcp 1000 ------- 2 4.0 7.0 15 53
- 0.428 1 2 tcp 1000 ------- 2 4.0 7.0 15 53
r 0.428 6 1 ack 40 ------- 3 6.2 5.0 9 54
+ 0.428 1 2 ack 40 ------- 3 6.2 5.0 9 54
r 0.42912 2 5 ack 40 ------- 3 6.2 5.0 7 49
+ 0.42912 5 2 tcp 1040 ------- 3 5.0 6.2 15 58
- 0.42912 5 2 tcp 1040 ------- 3 5.0 6.2 15 58
+ 0.42912 5 2 tcp 1040 ------- 3 5.0 6.2 16 59
r 0.429307 1 6 tcp 1040 ------- 3 5.0 6.2 11 41
+ 0.429307 6 1 ack 40 ------- 3 6.2 5.0 11 60
- 0.429307 6 1 ack 40 ------- 3 6.2 5.0 11 60
r 0.429573 1 2 tcp 1000 ------- 2 4.0 7.0 14 50
+ 0.429573 2 7 tcp 1000 ------- 2 4.0 7.0 14 50
- 0.429573 2 7 tcp 1000 ------- 2 4.0 7.0 14 50
r 0.429787 1 2 ack 40 ------- 3 6.2 5.0 8 52
+ 0.429787 2 5 ack 40 ------- 3 6.2 5.0 8 52
- 0.429787 2 5 ack 40 ------- 3 6.2 5.0 8 52
r 0.429947 1 4 ack 40 ------- 2 7.0 4.0 12 48
+ 0.429947 4 1 tcp 1000 ------- 2 4.0 7.0 18 61
- 0.429947 4 1 tcp 1000 ------- 2 4.0 7.0 18 61
r 0.43104 2 1 tcp 1040 ------- 3 5.0 6.2 14 45
+ 0.43104 1 6 tcp 1040 ------- 3 5.0 6.2 14 45
- 0.43104 1 6 tcp 1040 ------- 3 5.0 6.2 14 45
- 0.433333 1 2 ack 40 ------- 3 6.2 5.0 9 54
r 0.43376 4 1 tcp 1000 ------- 2 4.0 7.0 16 55
+ 0.43376 1 2 tcp 1000 ------- 2 4.0 7.0 16 55
- 0.43376 1 2 tcp 1000 ------- 2 4.0 7.0 16 55
r 0.43376 6 1 ack 40 ------- 3 6.2 5.0 10 56
+ 0.43376 1 2 ack 40 ------- 3 6.2 5.0 10 56
- 0.434667 5 2 tcp 1040 ------- 3 5.0 6.2 16 59
r 0.435067 1 6 tcp 1040 ------- 3 5.0 6.2 12 42
+ 0.435067 6 1 ack 40 ------- 3 6.2 5.0 12 62
- 0.435067 6 1 ack 40 ------- 3 6.2 5.0 12 62
r 0.435333 1 2 tcp 1000 ------- 2 4.0 7.0 15 53
+ 0.435333 2 7 tcp 1000 ------- 2 4.0 7.0 15 53
- 0.435333 2 7 tcp 1000 ------- 2 4.0 7.0 15 53
r 0.435547 1 2 ack 40 ------- 3 6.2 5.0 9 54
+ 0.435547 2 5 ack 40 ------- 3 6.2 5.0 9 54
- 0.435547 2 5 ack 40 ------- 3 6.2 5.0 9 54
r 0.435707 1 4 ack 40 ------- 2 7.0 4.0 13 51
+ 0.435707 4 1 tcp 1000 ------- 2 4.0 7.0 19 63
- 0.435707 4 1 tcp 1000 ------- 2 4.0 7.0 19 63
- 0.439093 1 2 ack 40 ------- 3 6.2 5.0 10 56
r 0.43952 4 1 tcp 1000 ------- 2 4.0 7.0 17 57
+ 0.43952 1 2 tcp 1000 ------- 2 4.0 7.0 17 57
- 0.43952 1 2 tcp 1000 ------- 2 4.0 7.0 17 57
r 0.43952 6 1 ack 40 ------- 3 6.2 5.0 11 60
+ 0.43952 1 2 ack 40 ------- 3 6.2 5.0 11 60
r 0.44 2 5 ack 40 ------- 3 6.2 5.0 8 52
+ 0.44 5 2 tcp 1040 ------- 3 5.0 6.2 17 64
+ 0.44 5 2 tcp 1040 ------- 3 5.0 6.2 18 65
- 0.440213 5 2 tcp 1040 ------- 3 5.0 6.2 17 64
r 0.440827 1 6 tcp 1040 ------- 3 5.0 6.2 13 44
+ 0.440827 6 1 ack 40 ------- 3 6.2 5.0 13 66
- 0.440827 6 1 ack 40 ------- 3 6.2 5.0 13 66
r 0.441093 1 2 tcp 1000 ------- 2 4.0 7.0 16 55
+ 0.441093 2 7 tcp 1000 ------- 2 4.0 7.0 16 55
- 0.441093 2 7 tcp 1000 ------- 2 4.0 7.0 16 55
r 0.441307 1 2 ack 40 ------- 3 6.2 5.0 10 56
+ 0.441307 2 5 ack 40 ------- 3 6.2 5.0 10 56
- 0.441307 2 5 ack 40 ------- 3 6.2 5.0 10 56
r 0.444667 5 2 tcp 1040 ------- 3 5.0 6.2 15 58
+ 0.444667 2 1 tcp 1040 ------- 3 5.0 6.2 15 58
- 0.444667 2 1 tcp 1040 ------- 3 5.0 6.2 15 58
- 0.444853 1 2 ack 40 ------- 3 6.2 5.0 11 60
r 0.444907 2 7 tcp 1000 ------- 2 4.0 7.0 14 50
+ 0.444907 7 2 ack 40 ------- 2 7.0 4.0 14 67
- 0.444907 7 2 ack 40 ------- 2 7.0 4.0 14 67
r 0.44528 4 1 tcp 1000 ------- 2 4.0 7.0 18 61
+ 0.44528 1 2 tcp 1000 ------- 2 4.0 7.0 18 61
- 0.44528 1 2 tcp 1000 ------- 2 4.0 7.0 18 61
r 0.44528 6 1 ack 40 ------- 3 6.2 5.0 12 62
+ 0.44528 1 2 ack 40 ------- 3 6.2 5.0 12 62
- 0.44576 5 2 tcp 1040 ------- 3 5.0 6.2 18 65
r 0.44576 2 5 ack 40 ------- 3 6.2 5.0 9 54
+ 0.44576 5 2 tcp 1040 ------- 3 5.0 6.2 19 68
+ 0.44576 5 2 tcp 1040 ------- 3 5.0 6.2 20 69
r 0.446587 1 6 tcp 1040 ------- 3 5.0 6.2 14 45
+ 0.446587 6 1 ack 40 ------- 3 6.2 5.0 14 70
- 0.446587 6 1 ack 40 ------- 3 6.2 5.0 14 70
r 0.446853 1 2 tcp 1000 ------- 2 4.0 7.0 17 57
+ 0.446853 2 7 tcp 1000 ------- 2 4.0 7.0 17 57
- 0.446853 2 7 tcp 1000 ------- 2 4.0 7.0 17 57
r 0.447067 1 2 ack 40 ------- 3 6.2 5.0 11 60
+ 0.447067 2 5 ack 40 ------- 3 6.2 5.0 11 60
- 0.447067 2 5 ack 40 ------- 3 6.2 5.0 11 60
r 0.450213 5 2 tcp 1040 ------- 3 5.0 6.2 16 59
+ 0.450213 2 1 tcp 1040 ------- 3 5.0 6.2 16 59
- 0.450213 2 1 tcp 1040 ------- 3 5.0 6.2 16 59
- 0.450613 1 2 ack 40 ------- 3 6.2 5.0 12 62
r 0.450667 2 7 tcp 1000 ------- 2 4.0 7.0 15 53
+ 0.450667 7 2 ack 40 ------- 2 7.0 4.0 15 71
- 0.450667 7 2 ack 40 ------- 2 7.0 4.0 15 71
r 0.45104 4 1 tcp 1000 ------- 2 4.0 7.0 19 63
+ 0.45104 1 2 tcp 1000 ------- 2 4.0 7.0 19 63
- 0.45104 1 2 tcp 1000 ------- 2 4.0 7.0 19 63
r 0.45104 6 1 ack 40 ------- 3 6.2 5.0 13 66
+ 0.45104 1 2 ack 40 ------- 3 6.2 5.0 13 66
- 0.451307 5 2 tcp 1040 ------- 3 5.0 6.2 19 68
r 0.45152 2 5 ack 40 ------- 3 6.2 5.0 10 56
+ 0.45152 5 2 tcp 1040 ------- 3 5.0 6.2 21 72
+ 0.45152 5 2 tcp 1040 ------- 3 5.0 6.2 22 73
r 0.452213 2 1 tcp 1040 ------- 3 5.0 6.2 15 58
+ 0.452213 1 6 tcp 1040 ------- 3 5.0 6.2 15 58
- 0.452213 1 6 tcp 1040 ------- 3 5.0 6.2 15 58
r 0.452613 1 2 tcp 1000 ------- 2 4.0 7.0 18 61
+ 0.452613 2 7 tcp 1000 ------- 2 4.0 7.0 18 61
- 0.452613 2 7 tcp 1000 ------- 2 4.0 7.0 18 61
r 0.452827 1 2 ack 40 ------- 3 6.2 5.0 12 62
+ 0.452827 2 5 ack 40 ------- 3 6.2 5.0 12 62
- 0.452827 2 5 ack 40 ------- 3 6.2 5.0 12 62
r 0.45512 7 2 ack 40 ------- 2 7.0 4.0 14 67
+ 0.45512 2 1 ack 40 ------- 2 7.0 4.0 14 67
r 0.45576 5 2 tcp 1040 ------- 3 5.0 6.2 17 64
+ 0.45576 2 1 tcp 1040 ------- 3 5.0 6.2 17 64
- 0.45576 2 1 ack 40 ------- 2 7.0 4.0 14 67
- 0.455973 2 1 tcp 1040 ------- 3 5.0 6.2 17 64
- 0.456373 1 2 ack 40 ------- 3 6.2 5.0 13 66
r 0.456427 2 7 tcp 1000 ------- 2 4.0 7.0 16 55
+ 0.456427 7 2 ack 40 ------- 2 7.0 4.0 16 74
- 0.456427 7 2 ack 40 ------- 2 7.0 4.0 16 74
r 0.4568 6 1 ack 40 ------- 3 6.2 5.0 14 70
+ 0.4568 1 2 ack 40 ------- 3 6.2 5.0 14 70
- 0.4568 1 2 ack 40 ------- 3 6.2 5.0 14 70
- 0.456853 5 2 tcp 1040 ------- 3 5.0 6.2 20 69
r 0.45728 2 5 ack 40 ------- 3 6.2 5.0 11 60
+ 0.45728 5 2 tcp 1040 ------- 3 5.0 6.2 23 75
+ 0.45728 5 2 tcp 1040 ------- 3 5.0 6.2 24 76
r 0.45776 2 1 tcp 1040 ------- 3 5.0 6.2 16 59
+ 0.45776 1 6 tcp 1040 ------- 3 5.0 6.2 16 59
- 0.45776 1 6 tcp 1040 ------- 3 5.0 6.2 16 59
r 0.457973 2 1 ack 40 ------- 2 7.0 4.0 14 67
+ 0.457973 1 4 ack 40 ------- 2 7.0 4.0 14 67
- 0.457973 1 4 ack 40 ------- 2 7.0 4.0 14 67
r 0.458373 1 2 tcp 1000 ------- 2 4.0 7.0 19 63
+ 0.458373 2 7 tcp 1000 ------- 2 4.0 7.0 19 63
- 0.458373 2 7 tcp 1000 ------- 2 4.0 7.0 19 63
r 0.458587 1 2 ack 40 ------- 3 6.2 5.0 13 66
+ 0.458587 2 5 ack 40 ------- 3 6.2 5.0 13 66
- 0.458587 2 5 ack 40 ------- 3 6.2 5.0 13 66
r 0.459013 1 2 ack 40 ------- 3 6.2 5.0 14 70
+ 0.459013 2 5 ack 40 ------- 3 6.2 5.0 14 70
- 0.459013 2 5 ack 40 ------- 3 6.2 5.0 14 70
r 0.46088 7 2 ack 40 ------- 2 7.0 4.0 15 71
+ 0.46088 2 1 ack 40 ------- 2 7.0 4.0 15 71
r 0.461307 5 2 tcp 1040 ------- 3 5.0 6.2 18 65
+ 0.461307 2 1 tcp 1040 ------- 3 5.0 6.2 18 65
- 0.46152 2 1 ack 40 ------- 2 7.0 4.0 15 71
- 0.461733 2 1 tcp 1040 ------- 3 5.0 6.2 18 65
r 0.462187 2 7 tcp 1000 ------- 2 4.0 7.0 17 57
+ 0.462187 7 2 ack 40 ------- 2 7.0 4.0 17 77
- 0.462187 7 2 ack 40 ------- 2 7.0 4.0 17 77
- 0.4624 5 2 tcp 1040 ------- 3 5.0 6.2 21 72
r 0.46304 2 5 ack 40 ------- 3 6.2 5.0 12 62
+ 0.46304 5 2 tcp 1040 ------- 3 5.0 6.2 25 78
+ 0.46304 5 2 tcp 1040 ------- 3 5.0 6.2 26 79
r 0.46352 2 1 tcp 1040 ------- 3 5.0 6.2 17 64
+ 0.46352 1 6 tcp 1040 ------- 3 5.0 6.2 17 64
- 0.46352 1 6 tcp 1040 ------- 3 5.0 6.2 17 64
r 0.463733 2 1 ack 40 ------- 2 7.0 4.0 15 71
+ 0.463733 1 4 ack 40 ------- 2 7.0 4.0 15 71
- 0.463733 1 4 ack 40 ------- 2 7.0 4.0 15 71
r 0.46664 7 2 ack 40 ------- 2 7.0 4.0 16 74
+ 0.46664 2 1 ack 40 ------- 2 7.0 4.0 16 74
r 0.466853 5 2 tcp 1040 ------- 3 5.0 6.2 19 68
+ 0.466853 2 1 tcp 1040 ------- 3 5.0 6.2 19 68
- 0.46728 2 1 ack 40 ------- 2 7.0 4.0 16 74
- 0.467493 2 1 tcp 1040 ------- 3 5.0 6.2 19 68
r 0.46776 1 6 tcp 1040 ------- 3 5.0 6.2 15 58
+ 0.46776 6 1 ack 40 ------- 3 6.2 5.0 15 80
- 0.46776 6 1 ack 40 ------- 3 6.2 5.0 15 80
- 0.467947 5 2 tcp 1040 ------- 3 5.0 6.2 22 73
r 0.467947 2 7 tcp 1000 ------- 2 4.0 7.0 18 61
+ 0.467947 7 2 ack 40 ------- 2 7.0 4.0 18 81
- 0.467947 7 2 ack 40 ------- 2 7.0 4.0 18 81
r 0.468187 1 4 ack 40 ------- 2 7.0 4.0 14 67
+ 0.468187 4 1 tcp 1000 ------- 2 4.0 7.0 20 82
- 0.468187 4 1 tcp 1000 ------- 2 4.0 7.0 20 82
+ 0.468187 4 1 tcp 1000 ------- 2 4.0 7.0 21 83
r 0.4688 2 5 ack 40 ------- 3 6.2 5.0 13 66
+ 0.4688 5 2 tcp 1040 ------- 3 5.0 6.2 27 84
+ 0.4688 5 2 tcp 1040 ------- 3 5.0 6.2 28 85
r 0.469227 2 5 ack 40 ------- 3 6.2 5.0 14 70