V -t * -v 1.0a5 -a 0
A -t * -n 1 -p 0 -o 0x7fffffff -c 30 -a 1
A -t * -h 1 -m 1073741823 -s 0
c -t * -i 0 -n black
c -t * -i 1 -n red
c -t * -i 2 -n blue
c -t * -i 3 -n green
n -t * -a 4 -s 4 -S UP -v circle -c black -i black
n -t * -a 0 -s 0 -S UP -v circle -c black -i black
n -t * -a 5 -s 5 -S UP -v circle -c black -i black
n -t * -a 1 -s 1 -S UP -v circle -c black -i black
n -t * -a 6 -s 6 -S UP -v circle -c black -i black
n -t * -a 2 -s 2 -S UP -v circle -c black -i black
n -t * -a 7 -s 7 -S UP -v circle -c black -i black
n -t * -a 3 -s 3 -S UP -v circle -c black -i black
l -t * -s 0 -d 1 -S UP -r 5000000 -D 0.002 -c black -o right
l -t * -s 1 -d 2 -S UP -r 1500000 -D 0.002 -c black -o right
l -t * -s 2 -d 3 -S UP -r 5000000 -D 0.002 -c black -o right
l -t * -s 1 -d 4 -S UP -r 1500000 -D 0.01 -c black -o down
l -t * -s 2 -d 5 -S UP -r 1500000 -D 0.01 -c black -o down
l -t * -s 1 -d 6 -S UP -r 1500000 -D 0.01 -c black -o up
l -t * -s 2 -d 7 -S UP -r 1500000 -D 0.01 -c black -o up
+ -t 0.1 -s 4 -d 1 -p tcp -e 1000 -c 2 -i 0 -a 2 -x {4.0 7.0 0 ------- null}
- -t 0.1 -s 4 -d 1 -p tcp -e 1000 -c 2 -i 0 -a 2 -x {4.0 7.0 0 ------- null}
h -t 0.1 -s 4 -d 1 -p tcp -e 1000 -c 2 -i 0 -a 2 -x {4.0 7.0 -1 ------- null}
r -t 0.115333333333333 -s 4 -d 1 -p tcp -e 1000 -c 2 -i 0 -a 2 -x {4.0 7.0 0 ------- null}
+ -t 0.115333333333333 -s 1 -d 2 -p tcp -e 1000 -c 2 -i 0 -a 2 -x {4.0 7.0 0 ------- null}
- -t 0.115333333333333 -s 1 -d 2 -p tcp -e 1000 -c 2 -i 0 -a 2 -x {4.0 7.0 0 ------- null}
h -t 0.115333333333333 -s 1 -d 2 -p tcp -e 1000 -c 2 -i 0 -a 2 -x {4.0 7.0 -1 ------- null}
r -t 0.122666666666667 -s 1 -d 2 -p tcp -e 1000 -c 2 -i 0 -a 2 -x {4.0 7.0 0 ------- null}
+ -t 0.122666666666667 -s 2 -d 7 -p tcp -e 1000 -c 2 -i 0 -a 2 -x {4.0 7.0 0 ------- null}
- -t 0.122666666666667 -s 2 -d 7 -p tcp -e 1000 -c 2 -i 0 -a 2 -x {4.0 7.0 0 ------- null}
h -t 0.122666666666667 -s 2 -d 7 -p tcp -e 1000 -c 2 -i 0 -a 2 -x {4.0 7.0 -1 ------- null}
r -t 0.138 -s 2 -d 7 -p tcp -e 1000 -c 2 -i 0 -a 2 -x {4.0 7.0 0 ------- null}
+ -t 0.138 -s 7 -d 2 -p ack -e 40 -c 2 -i 1 -a 2 -x {7.0 4.0 0 ------- null}
- -t 0.138 -s 7 -d 2 -p ack -e 40 -c 2 -i 1 -a 2 -x {7.0 4.0 0 ------- null}
h -t 0.138 -s 7 -d 2 -p ack -e 40 -c 2 -i 1 -a 2 -x {7.0 4.0 -1 ------- null}
r -t 0.148213333333333 -s 7 -d 2 -p ack -e 40 -c 2 -i 1 -a 2 -x {7.0 4.0 0 ------- null}
+ -t 0.148213333333333 -s 2 -d 1 -p ack -e 40 -c 2 -i 1 -a 2 -x {7.0 4.0 0 ------- null}
- -t 0.148213333333333 -s 2 -d 1 -p ack -e 40 -c 2 -i 1 -a 2 -x {7.0 4.0 0 ------- null}
h -t 0.148213333333333 -s 2 -d 1 -p ack -e 40 -c 2 -i 1 -a 2 -x {7.0 4.0 -1 ------- null}
r -t 0.150426666666667 -s 2 -d 1 -p ack -e 40 -c 2 -i 1 -a 2 -x {7.0 4.0 0 ------- null}
+ -t 0.150426666666667 -s 1 -d 4 -p ack -e 40 -c 2 -i 1 -a 2 -x {7.0 4.0 0 ------- null}
- -t 0.150426666666667 -s 1 -d 4 -p ack -e 40 -c 2 -i 1 -a 2 -x {7.0 4.0 0 ------- null}
h -t 0.150426666666667 -s 1 -d 4 -p ack -e 40 -c 2 -i 1 -a 2 -x {7.0 4.0 -1 ------- null}
r -t 0.16064 -s 1 -d 4 -p ack -e 40 -c 2 -i 1 -a 2 -x {7.0 4.0 0 ------- null}
+ -t 0.16064 -s 4 -d 1 -p tcp -e 1000 -c 2 -i 2 -a 2 -x {4.0 7.0 1 ------- null}
- -t 0.16064 -s 4 -d 1 -p tcp -e 1000 -c 2 -i 2 -a 2 -x {4.0 7.0 1 ------- null}
h -t 0.16064 -s 4 -d 1 -p tcp -e 1000 -c 2 -i 2 -a 2 -x {4.0 7.0 -1 ------- null}
r -t 0.175973333333333 -s 4 -d 1 -p tcp -e 1000 -c 2 -i 2 -a 2 -x {4.0 7.0 1 ------- null}
+ -t 0.175973333333333 -s 1 -d 2 -p tcp -e 1000 -c 2 -i 2 -a 2 -x {4.0 7.0 1 ------- null}
- -t 0.175973333333333 -s 1 -d 2 -p tcp -e 1000 -c 2 -i 2 -a 2 -x {4.0 7.0 1 ------- null}
h -t 0.175973333333333 -s 1 -d 2 -p tcp -e 1000 -c 2 -i 2 -a 2 -x {4.0 7.0 -1 ------- null}
r -t 0.183306666666667 -s 1 -d 2 -p tcp -e 1000 -c 2 -i 2 -a 2 -x {4.0 7.0 1 ------- null}
+ -t 0.183306666666667 -s 2 -d 7 -p tcp -e 1000 -c 2 -i 2 -a 2 -x {4.0 7.0 1 ------- null}
- -t 0.183306666666667 -s 2 -d 7 -p tcp -e 1000 -c 2 -i 2 -a 2 -x {4.0 7.0 1 ------- null}
h -t 0.183306666666667 -s 2 -d 7 -p tcp -e 1000 -c 2 -i 2 -a 2 -x {4.0 7.0 -1 ------- null}
r -t 0.19864 -s 2 -d 7 -p tcp -e 1000 -c 2 -i 2 -a 2 -x {4.0 7.0 1 ------- null}
+ -t 0.19864 -s 7 -d 2 -p ack -e 40 -c 2 -i 3 -a 2 -x {7.0 4.0 1 ------- null}
- -t 0.19864 -s 7 -d 2 -p ack -e 40 -c 2 -i 3 -a 2 -x {7.0 4.0 1 ------- null}
h -t 0.19864 -s 7 -d 2 -p ack -e 40 -c 2 -i 3 -a 2 -x {7.0 4.0 -1 ------- null}
+ -t 0.2 -s 5 -d 2 -p tcp -e 40 -c 3 -i 4 -a 3 -x {5.0 6.2 0 ------- null}
- -t 0.2 -s 5 -d 2 -p tcp -e 40 -c 3 -i 4 -a 3 -x {5.0 6.2 0 ------- null}
h -t 0.2 -s 5 -d 2 -p tcp -e 40 -c 3 -i 4 -a 3 -x {5.0 6.2 -1 ------- null}
r -t 0.208853333333333 -s 7 -d 2 -p ack -e 40 -c 2 -i 3 -a 2 -x {7.0 4.0 1 ------- null}
+ -t 0.208853333333333 -s 2 -d 1 -p ack -e 40 -c 2 -i 3 -a 2 -x {7.0 4.0 1 ------- null}
- -t 0.208853333333333 -s 2 -d 1 -p ack -e 40 -c 2 -i 3 -a 2 -x {7.0 4.0 1 ------- null}
h -t 0.208853333333333 -s 2 -d 1 -p ack -e 40 -c 2 -i 3 -a 2 -x {7.0 4.0 -1 ------- null}
r -t 0.210213333333333 -s 5 -d 2 -p tcp -e 40 -c 3 -i 4 -a 3 -x {5.0 6.2 0 ------- null}
+ -t 0.210213333333333 -s 2 -d 1 -p tcp -e 40 -c 3 -i 4 -a 3 -x {5.0 6.2 0 ------- null}
- -t 0.210213333333333 -s 2 -d 1 -p tcp -e 40 -c 3 -i 4 -a 3 -x {5.0 6.2 0 ------- null}
h -t 0.210213333333333 -s 2 -d 1 -p tcp -e 40 -c 3 -i 4 -a 3 -x {5.0 6.2 -1 ------- null}
r -t 0.211066666666667 -s 2 -d 1 -p ack -e 40 -c 2 -i 3 -a 2 -x {7.0 4.0 1 ------- null}
+ -t 0.211066666666667 -s 1 -d 4 -p ack -e 40 -c 2 -i 3 -a 2 -x {7.0 4.0 1 ------- null}
- -t 0.211066666666667 -s 1 -d 4 -p ack -e 40 -c 2 -i 3 -a 2 -x {7.0 4.0 1 ------- null}
h -t 0.211066666666667 -s 1 -d 4 -p ack -e 40 -c 2 -i 3 -a 2 -x {7.0 4.0 -1 ------- null}
r -t 0.212426666666667 -s 2 -d 1 -p tcp -e 40 -c 3 -i 4 -a 3 -x {5.0 6.2 0 ------- null}
+ -t 0.212426666666667 -s 1 -d 6 -p tcp -e 40 -c 3 -i 4 -a 3 -x {5.0 6.2 0 ------- null}
- -t 0.212426666666667 -s 1 -d 6 -p tcp -e 40 -c 3 -i 4 -a 3 -x {5.0 6.2 0 ------- null}
h -t 0.212426666666667 -s 1 -d 6 -p tcp -e 40 -c 3 -i 4 -a 3 -x {5.0 6.2 -1 ------- null}
r -t 0.22128 -s 1 -d 4 -p ack -e 40 -c 2 -i 3 -a 2 -x {7.0 4.0 1 ------- null}
+ -t 0.22128 -s 4 -d 1 -p tcp -e 1000 -c 2 -i 5 -a 2 -x {4.0 7.0 2 ------- null}
- -t 0.22128 -s 4 -d 1 -p tcp -e 1000 -c 2 -i 5 -a 2 -x {4.0 7.0 2 ------- null}
h -t 0.22128 -s 4 -d 1 -p tcp -e 1000 -c 2 -i 5 -a 2 -x {4.0 7.0 -1 ------- null}
+ -t 0.22128 -s 4 -d 1 -p tcp -e 1000 -c 2 -i 6 -a 2 -x {4.0 7.0 3 ------- null}
+ -t 0.22128 -s 4 -d 1 -p tcp -e 1000 -c 2 -i 7 -a 2 -x {4.0 7.0 4 ------- null}
r -t 0.22264 -s 1 -d 6 -p tcp -e 40 -c 3 -i 4 -a 3 -x {5.0 6.2 0 ------- null}
+ -t 0.22264 -s 6 -d 1 -p ack -e 40 -c 3 -i 8 -a 3 -x {6.2 5.0 0 ------- null}
- -t 0.22264 -s 6 -d 1 -p ack -e 40 -c 3 -i 8 -a 3 -x {6.2 5.0 0 ------- null}
h -t 0.22264 -s 6 -d 1 -p ack -e 40 -c 3 -i 8 -a 3 -x {6.2 5.0 -1 ------- null}
- -t 0.226613333333333 -s 4 -d 1 -p tcp -e 1000 -c 2 -i 6 -a 2 -x {4.0 7.0 3 ------- null}
h -t 0.226613333333333 -s 4 -d 1 -p tcp -e 1000 -c 2 -i 6 -a 2 -x {4.0 7.0 -1 ------- null}
- -t 0.231946666666667 -s 4 -d 1 -p tcp -e 1000 -c 2 -i 7 -a 2 -x {4.0 7.0 4 ------- null}
h -t 0.231946666666667 -s 4 -d 1 -p tcp -e 1000 -c 2 -i 7 -a 2 -x {4.0 7.0 -1 ------- null}
r -t 0.232853333333333 -s 6 -d 1 -p ack -e 40 -c 3 -i 8 -a 3 -x {6.2 5.0 0 ------- null}
+ -t 0.232853333333333 -s 1 -d 2 -p ack -e 40 -c 3 -i 8 -a 3 -x {6.2 5.0 0 ------- null}
- -t 0.232853333333333 -s 1 -d 2 -p ack -e 40 -c 3 -i 8 -a 3 -x {6.2 5.0 0 ------- null}
h -t 0.232853333333333 -s 1 -d 2 -p ack -e 40 -c 3 -i 8 -a 3 -x {6.2 5.0 -1 ------- null}
r -t 0.235066666666667 -s 1 -d 2 -p ack -e 40 -c 3 -i 8 -a 3 -x {6.2 5.0 0 ------- null}
+ -t 0.235066666666667 -s 2 -d 5 -p ack -e 40 -c 3 -i 8 -a 3 -x {6.2 5.0 0 ------- null}
- -t 0.235066666666667 -s 2 -d 5 -p ack -e 40 -c 3 -i 8 -a 3 -x {6.2 5.0 0 ------- null}
h -t 0.235066666666667 -s 2 -d 5 -p ack -e 40 -c 3 -i 8 -a 3 -x {6.2 5.0 -1 ------- null}
r -t 0.236613333333333 -s 4 -d 1 -p tcp -e 1000 -c 2 -i 5 -a 2 -x {4.0 7.0 2 ------- null}
+ -t 0.236613333333333 -s 1 -d 2 -p tcp -e 1000 -c 2 -i 5 -a 2 -x {4.0 7.0 2 ------- null}
- -t 0.236613333333333 -s 1 -d 2 -p tcp -e 1000 -c 2 -i 5 -a 2 -x {4.0 7.0 2 ------- null}
h -t 0.236613333333333 -s 1 -d 2 -p tcp -e 1000 -c 2 -i 5 -a 2 -x {4.0 7.0 -1 ------- null}
r -t 0.241946666666667 -s 4 -d 1 -p tcp -e 1000 -c 2 -i 6 -a 2 -x {4.0 7.0 3 ------- null}
+ -t 0.241946666666667 -s 1 -d 2 -p tcp -e 1000 -c 2 -i 6 -a 2 -x {4.0 7.0 3 ------- null}
- -t 0.241946666666667 -s 1 -d 2 -p tcp -e 1000 -c 2 -i 6 -a 2 -x {4.0 7.0 3 ------- null}
h -t 0.241946666666667 -s 1 -d 2 -p tcp -e 1000 -c 2 -i 6 -a 2 -x {4.0 7.0 -1 ------- null}
r -t 0.243946666666667 -s 1 -d 2 -p tcp -e 1000 -c 2 -i 5 -a 2 -x {4.0 7.0 2 ------- null}
+ -t 0.243946666666667 -s 2 -d 7 -p tcp -e 1000 -c 2 -i 5 -a 2 -x {4.0 7.0 2 ------- null}
- -t 0.243946666666667 -s 2 -d 7 -p tcp -e 1000 -c 2 -i 5 -a 2 -x {4.0 7.0 2 ------- null}
h -t 0.243946666666667 -s 2 -d 7 -p tcp -e 1000 -c 2 -i 5 -a 2 -x {4.0 7.0 -1 ------- null}
r -t 0.24528 -s 2 -d 5 -p ack -e 40 -c 3 -i 8 -a 3 -x {6.2 5.0 0 ------- null}
+ -t 0.24528 -s 5 -d 2 -p tcp -e 1040 -c 3 -i 9 -a 3 -x {5.0 6.2 1 ------- null}
- -t 0.24528 -s 5 -d 2 -p tcp -e 1040 -c 3 -i 9 -a 3 -x {5.0 6.2 1 ------- null}
h -t 0.24528 -s 5 -d 2 -p tcp -e 1040 -c 3 -i 9 -a 3 -x {5.0 6.2 -1 ------- null}
+ -t 0.24528 -s 5 -d 2 -p tcp -e 1040 -c 3 -i 10 -a 3 -x {5.0 6.2 2 ------- null}
r -t 0.24728 -s 4 -d 1 -p tcp -e 1000 -c 2 -i 7 -a 2 -x {4.0 7.0 4 ------- null}
+ -t 0.24728 -s 1 -d 2 -p tcp -e 1000 -c 2 -i 7 -a 2 -x {4.0 7.0 4 ------- null}
- -t 0.24728 -s 1 -d 2 -p tcp -e 1000 -c 2 -i 7 -a 2 -x {4.0 7.0 4 ------- null}
h -t 0.24728 -s 1 -d 2 -p tcp -e 1000 -c 2 -i 7 -a 2 -x {4.0 7.0 -1 ------- null}
r -t 0.24928 -s 1 -d 2 -p tcp -e 1000 -c 2 -i 6 -a 2 -x {4.0 7.0 3 ------- null}
+ -t 0.24928 -s 2 -d 7 -p tcp -e 1000 -c 2 -i 6 -a 2 -x {4.0 7.0 3 ------- null}
- -t 0.24928 -s 2 -d 7 -p tcp -e 1000 -c 2 -i 6 -a 2 -x {4.0 7.0 3 ------- null}
h -t 0.24928 -s 2 -d 7 -p tcp -e 1000 -c 2 -i 6 -a 2 -x {4.0 7.0 -1 ------- null}
- -t 0.250826666666667 -s 5 -d 2 -p tcp -e 1040 -c 3 -i 10 -a 3 -x {5.0 6.2 2 ------- null}
h -t 0.250826666666667 -s 5 -d 2 -p tcp -e 1040 -c 3 -i 10 -a 3 -x {5.0 6.2 -1 ------- null}
r -t 0.254613333333333 -s 1 -d 2 -p tcp -e 1000 -c 2 -i 7 -a 2 -x {4.0 7.0 4 ------- null}
+ -t 0.254613333333333 -s 2 -d 7 -p tcp -e 1000 -c 2 -i 7 -a 2 -x {4.0 7.0 4 ------- null}
- -t 0.254613333333333 -s 2 -d 7 -p tcp -e 1000 -c 2 -i 7 -a 2 -x {4.0 7.0 4 ------- null}
h -t 0.254613333333333 -s 2 -d 7 -p tcp -e 1000 -c 2 -i 7 -a 2 -x {4.0 7.0 -1 ------- null}
r -t 0.25928 -s 2 -d 7 -p tcp -e 1000 -c 2 -i 5 -a 2 -x {4.0 7.0 2 ------- null}
+ -t 0.25928 -s 7 -d 2 -p ack -e 40 -c 2 -i 11 -a 2 -x {7.0 4.0 2 ------- null}
- -t 0.25928 -s 7 -d 2 -p ack -e 40 -c 2 -i 11 -a 2 -x {7.0 4.0 2 ------- null}
h -t 0.25928 -s 7 -d 2 -p ack -e 40 -c 2 -i 11 -a 2 -x {7.0 4.0 -1 ------- null}
r -t 0.260826666666667 -s 5 -d 2 -p tcp -e 1040 -c 3 -i 9 -a 3 -x {5.0 6.2 1 ------- null}
+ -t 0.260826666666667 -s 2 -d 1 -p tcp -e 1040 -c 3 -i 9 -a 3 -x {5.0 6.2 1 ------- null}
- -t 0.260826666666667 -s 2 -d 1 -p tcp -e 1040 -c 3 -i 9 -a 3 -x {5.0 6.2 1 ------- null}
h -t 0.260826666666667 -s 2 -d 1 -p tcp -e 1040 -c 3 -i 9 -a 3 -x {5.0 6.2 -1 ------- null}
r -t 0.264613333333333 -s 2 -d 7 -p tcp -e 1000 -c 2 -i 6 -a 2 -x {4.0 7.0 3 ------- null}
+ -t 0.264613333333333 -s 7 -d 2 -p ack -e 40 -c 2 -i 12 -a 2 -x {7.0 4.0 3 ------- null}
- -t 0.264613333333333 -s 7 -d 2 -p ack -e 40 -c 2 -i 12 -a 2 -x {7.0 4.0 3 ------- null}
h -t 0.264613333333333 -s 7 -d 2 -p ack -e 40 -c 2 -i 12 -a 2 -x {7.0 4.0 -1 ------- null}
r -t 0.266373333333333 -s 5 -d 2 -p tcp -e 1040 -c 3 -i 10 -a 3 -x {5.0 6.2 2 ------- null}
+ -t 0.266373333333333 -s 2 -d 1 -p tcp -e 1040 -c 3 -i 10 -a 3 -x {5.0 6.2 2 ------- null}
- -t 0.266373333333333 -s 2 -d 1 -p tcp -e 1040 -c 3 -i 10 -a 3 -x {5.0 6.2 2 ------- null}
h -t 0.266373333333333 -s 2 -d 1 -p tcp -e 1040 -c 3 -i 10 -a 3 -x {5.0 6.2 -1 ------- null}
r -t 0.268373333333333 -s 2 -d 1 -p tcp -e 1040 -c 3 -i 9 -a 3 -x {5.0 6.2 1 ------- null}
+ -t 0.268373333333333 -s 1 -d 6 -p tcp -e 1040 -c 3 -i 9 -a 3 -x {5.0 6.2 1 ------- null}
- -t 0.268373333333333 -s 1 -d 6 -p tcp -e 1040 -c 3 -i 9 -a 3 -x {5.0 6.2 1 ------- null}
h -t 0.268373333333333 -s 1 -d 6 -p tcp -e 1040 -c 3 -i 9 -a 3 -x {5.0 6.2 -1 ------- null}
r -t 0.269493333333333 -s 7 -d 2 -p ack -e 40 -c 2 -i 11 -a 2 -x {7.0 4.0 2 ------- null}
+ -t 0.269493333333333 -s 2 -d 1 -p ack -e 40 -c 2 -i 11 -a 2 -x {7.0 4.0 2 ------- null}
r -t 0.269946666666667 -s 2 -d 7 -p tcp -e 1000 -c 2 -i 7 -a 2 -x {4.0 7.0 4 ------- null}
+ -t 0.269946666666667 -s 7 -d 2 -p ack -e 40 -c 2 -i 13 -a 2 -x {7.0 4.0 4 ------- null}
- -t 0.269946666666667 -s 7 -d 2 -p ack -e 40 -c 2 -i 13 -a 2 -x {7.0 4.0 4 ------- null}
h -t 0.269946666666667 -s 7 -d 2 -p ack -e 40 -c 2 -i 13 -a 2 -x {7.0 4.0 -1 ------- null}
- -t 0.27192 -s 2 -d 1 -p ack -e 40 -c 2 -i 11 -a 2 -x {7.0 4.0 2 ------- null}
h -t 0.27192 -s 2 -d 1 -p ack -e 40 -c 2 -i 11 -a 2 -x {7.0 4.0 -1 ------- null}
r -t 0.27392 -s 2 -d 1 -p tcp -e 1040 -c 3 -i 10 -a 3 -x {5.0 6.2 2 ------- null}
+ -t 0.27392 -s 1 -d 6 -p tcp -e 1040 -c 3 -i 10 -a 3 -x {5.0 6.2 2 ------- null}
- -t 0.27392 -s 1 -d 6 -p tcp -e 1040 -c 3 -i 10 -a 3 -x {5.0 6.2 2 ------- null}
h -t 0.27392 -s 1 -d 6 -p tcp -e 1040 -c 3 -i 10 -a 3 -x {5.0 6.2 -1 ------- null}
r -t 0.274133333333333 -s 2 -d 1 -p ack -e 40 -c 2 -i 11 -a 2 -x {7.0 4.0 2 ------- null}
+ -t 0.274133333333333 -s 1 -d 4 -p ack -e 40 -c 2 -i 11 -a 2 -x {7.0 4.0 2 ------- null}
- -t 0.274133333333333 -s 1 -d 4 -p ack -e 40 -c 2 -i 11 -a 2 -x {7.0 4.0 2 ------- null}
h -t 0.274133333333333 -s 1 -d 4 -p ack -e 40 -c 2 -i 11 -a 2 -x {7.0 4.0 -1 ------- null}
r -t 0.274826666666667 -s 7 -d 2 -p ack -e 40 -c 2 -i 12 -a 2 -x {7.0 4.0 3 ------- null}
+ -t 0.274826666666667 -s 2 -d 1 -p ack -e 40 -c 2 -i 12 -a 2 -x {7.0 4.0 3 ------- null}
- -t 0.274826666666667 -s 2 -d 1 -p ack -e 40 -c 2 -i 12 -a 2 -x {7.0 4.0 3 ------- null}
h -t 0.274826666666667 -s 2 -d 1 -p ack -e 40 -c 2 -i 12 -a 2 -x {7.0 4.0 -1 ------- null}
r -t 0.27704 -s 2 -d 1 -p ack -e 40 -c 2 -i 12 -a 2 -x {7.0 4.0 3 ------- null}
+ -t 0.27704 -s 1 -d 4 -p ack -e 40 -c 2 -i 12 -a 2 -x {7.0 4.0 3 ------- null}
- -t 0.27704 -s 1 -d 4 -p ack -e 40 -c 2 -i 12 -a 2 -x {7.0 4.0 3 ------- null}
h -t 0.27704 -s 1 -d 4 -p ack -e 40 -c 2 -i 12 -a 2 -x {7.0 4.0 -1 ------- null}
r -t 0.28016 -s 7 -d 2 -p ack -e 40 -c 2 -i 13 -a 2 -x {7.0 4.0 4 ------- null}
+ -t 0.28016 -s 2 -d 1 -p ack -e 40 -c 2 -i 13 -a 2 -x {7.0 4.0 4 ------- null}
- -t 0.28016 -s 2 -d 1 -p ack -e 40 -c 2 -i 13 -a 2 -x {7.0 4.0 4 ------- null}
h -t 0.28016 -s 2 -d 1 -p ack -e 40 -c 2 -i 13 -a 2 -x {7.0 4.0 -1 ------- null}
r -t 0.282373333333333 -s 2 -d 1 -p ack -e 40 -c 2 -i 13 -a 2 -x {7.0 4.0 4 ------- null}
+ -t 0.282373333333333 -s 1 -d 4 -p ack -e 40 -c 2 -i 13 -a 2 -x {7.0 4.0 4 ------- null}
- -t 0.282373333333333 -s 1 -d 4 -p ack -e 40 -c 2 -i 13 -a 2 -x {7.0 4.0 4 ------- null}
h -t 0.282373333333333 -s 1 -d 4 -p ack -e 40 -c 2 -i 13 -a 2 -x {7.0 4.0 -1 ------- null}
r -t 0.28392 -s 1 -d 6 -p tcp -e 1040 -c 3 -i 9 -a 3 -x {5.0 6.2 1 ------- null}
+ -t 0.28392 -s 6 -d 1 -p ack -e 40 -c 3 -i 14 -a 3 -x {6.2 5.0 1 ------- null}
- -t 0.28392 -s 6 -d 1 -p ack -e 40 -c 3 -i 14 -a 3 -x {6.2 5.0 1 ------- null}
h -t 0.28392 -s 6 -d 1 -p ack -e 40 -c 3 -i 14 -a 3 -x {6.2 5.0 -1 ------- null}
r -t 0.284346666666667 -s 1 -d 4 -p ack -e 40 -c 2 -i 11 -a 2 -x {7.0 4.0 2 ------- null}
+ -t 0.284346666666667 -s 4 -d 1 -p tcp -e 1000 -c 2 -i 15 -a 2 -x {4.0 7.0 5 ------- null}
- -t 0.284346666666667 -s 4 -d 1 -p tcp -e 1000 -c 2 -i 15 -a 2 -x {4.0 7.0 5 ------- null}
h -t 0.284346666666667 -s 4 -d 1 -p tcp -e 1000 -c 2 -i 15 -a 2 -x {4.0 7.0 -1 ------- null}
r -t 0.287253333333333 -s 1 -d 4 -p ack -e 40 -c 2 -i 12 -a 2 -x {7.0 4.0 3 ------- null}
+ -t 0.287253333333333 -s 4 -d 1 -p tcp -e 1000 -c 2 -i 16 -a 2 -x {4.0 7.0 6 ------- null}
r -t 0.289466666666667 -s 1 -d 6 -p tcp -e 1040 -c 3 -i 10 -a 3 -x {5.0 6.2 2 ------- null}
+ -t 0.289466666666667 -s 6 -d 1 -p ack -e 40 -c 3 -i 17 -a 3 -x {6.2 5.0 2 ------- null}
- -t 0.289466666666667 -s 6 -d 1 -p ack -e 40 -c 3 -i 17 -a 3 -x {6.2 5.0 2 ------- null}
h -t 0.289466666666667 -s 6 -d 1 -p ack -e 40 -c 3 -i 17 -a 3 -x {6.2 5.0 -1 ------- null}
- -t 0.28968 -s 4 -d 1 -p tcp -e 1000 -c 2 -i 16 -a 2 -x {4.0 7.0 6 ------- null}
h -t 0.28968 -s 4 -d 1 -p tcp -e 1000 -c 2 -i 16 -a 2 -x {4.0 7.0 -1 ------- null}
r -t 0.292586666666667 -s 1 -d 4 -p ack -e 40 -c 2 -i 13 -a 2 -x {7.0 4.0 4 ------- null}
+ -t 0.292586666666667 -s 4 -d 1 -p tcp -e 1000 -c 2 -i 18 -a 2 -x {4.0 7.0 7 ------- null}
r -t 0.294133333333333 -s 6 -d 1 -p ack -e 40 -c 3 -i 14 -a 3 -x {6.2 5.0 1 ------- null}
+ -t 0.294133333333333 -s 1 -d 2 -p ack -e 40 -c 3 -i 14 -a 3 -x {6.2 5.0 1 ------- null}
- -t 0.294133333333333 -s 1 -d 2 -p ack -e 40 -c 3 -i 14 -a 3 -x {6.2 5.0 1 ------- null}
h -t 0.294133333333333 -s 1 -d 2 -p ack -e 40 -c 3 -i 14 -a 3 -x {6.2 5.0 -1 ------- null}
- -t 0.295013333333333 -s 4 -d 1 -p tcp -e 1000 -c 2 -i 18 -a 2 -x {4.0 7.0 7 ------- null}
h -t 0.295013333333333 -s 4 -d 1 -p tcp -e 1000 -c 2 -i 18 -a 2 -x {4.0 7.0 -1 ------- null}
r -t 0.296346666666667 -s 1 -d 2 -p ack -e 40 -c 3 -i 14 -a 3 -x {6.2 5.0 1 ------- null}
+ -t 0.296346666666667 -s 2 -d 5 -p ack -e 40 -c 3 -i 14 -a 3 -x {6.2 5.0 1 ------- null}
- -t 0.296346666666667 -s 2 -d 5 -p ack -e 40 -c 3 -i 14 -a 3 -x {6.2 5.0 1 ------- null}
h -t 0.296346666666667 -s 2 -d 5 -p ack -e 40 -c 3 -i 14 -a 3 -x {6.2 5.0 -1 ------- null}
r -t 0.29968 -s 4 -d 1 -p tcp -e 1000 -c 2 -i 15 -a 2 -x {4.0 7.0 5 ------- null}
+ -t 0.29968 -s 1 -d 2 -p tcp -e 1000 -c 2 -i 15 -a 2 -x {4.0 7.0 5 ------- null}
- -t 0.29968 -s 1 -d 2 -p tcp -e 1000 -c 2 -i 15 -a 2 -x {4.0 7.0 5 ------- null}
h -t 0.29968 -s 1 -d 2 -p tcp -e 1000 -c 2 -i 15 -a 2 -x {4.0 7.0 -1 ------- null}
r -t 0.29968 -s 6 -d 1 -p ack -e 40 -c 3 -i 17 -a 3 -x {6.2 5.0 2 ------- null}
+ -t 0.29968 -s 1 -d 2 -p ack -e 40 -c 3 -i 17 -a 3 -x {6.2 5.0 2 ------- null}
r -t 0.305013333333333 -s 4 -d 1 -p tcp -e 1000 -c 2 -i 16 -a 2 -x {4.0 7.0 6 ------- null}
+ -t 0.305013333333333 -s 1 -d 2 -p tcp -e 1000 -c 2 -i 16 -a 2 -x {4.0 7.0 6 ------- null}
- -t 0.305013333333333 -s 1 -d 2 -p ack -e 40 -c 3 -i 17 -a 3 -x {6.2 5.0 2 ------- null}
h -t 0.305013333333333 -s 1 -d 2 -p ack -e 40 -c 3 -i 17 -a 3 -x {6.2 5.0 -1 ------- null}
- -t 0.305226666666667 -s 1 -d 2 -p tcp -e 1000 -c 2 -i 16 -a 2 -x {4.0 7.0 6 ------- null}
h -t 0.305226666666667 -s 1 -d 2 -p tcp -e 1000 -c 2 -i 16 -a 2 -x {4.0 7.0 -1 ------- null}
r -t 0.30656 -s 2 -d 5 -p ack -e 40 -c 3 -i 14 -a 3 -x {6.2 5.0 1 ------- null}
+ -t 0.30656 -s 5 -d 2 -p tcp -e 1040 -c 3 -i 19 -a 3 -x {5.0 6.2 3 ------- null}
- -t 0.30656 -s 5 -d 2 -p tcp -e 1040 -c 3 -i 19 -a 3 -x {5.0 6.2 3 ------- null}
h -t 0.30656 -s 5 -d 2 -p tcp -e 1040 -c 3 -i 19 -a 3 -x {5.0 6.2 -1 ------- null}
+ -t 0.30656 -s 5 -d 2 -p tcp -e 1040 -c 3 -i 20 -a 3 -x {5.0 6.2 4 ------- null}
r -t 0.307013333333333 -s 1 -d 2 -p tcp -e 1000 -c 2 -i 15 -a 2 -x {4.0 7.0 5 ------- null}
+ -t 0.307013333333333 -s 2 -d 7 -p tcp -e 1000 -c 2 -i 15 -a 2 -x {4.0 7.0 5 ------- null}
- -t 0.307013333333333 -s 2 -d 7 -p tcp -e 1000 -c 2 -i 15 -a 2 -x {4.0 7.0 5 ------- null}
h -t 0.307013333333333 -s 2 -d 7 -p tcp -e 1000 -c 2 -i 15 -a 2 -x {4.0 7.0 -1 ------- null}
r -t 0.307226666666667 -s 1 -d 2 -p ack -e 40 -c 3 -i 17 -a 3 -x {6.2 5.0 2 ------- null}
+ -t 0.307226666666667 -s 2 -d 5 -p ack -e 40 -c 3 -i 17 -a 3 -x {6.2 5.0 2 ------- null}
- -t 0.307226666666667 -s 2 -d 5 -p ack -e 40 -c 3 -i 17 -a 3 -x {6.2 5.0 2 ------- null}
h -t 0.307226666666667 -s 2 -d 5 -p ack -e 40 -c 3 -i 17 -a 3 -x {6.2 5.0 -1 ------- null}
r -t 0.310346666666667 -s 4 -d 1 -p tcp -e 1000 -c 2 -i 18 -a 2 -x {4.0 7.0 7 ------- null}
+ -t 0.310346666666667 -s 1 -d 2 -p tcp -e 1000 -c 2 -i 18 -a 2 -x {4.0 7.0 7 ------- null}
- -t 0.31056 -s 1 -d 2 -p tcp -e 1000 -c 2 -i 18 -a 2 -x {4.0 7.0 7 ------- null}
h -t 0.31056 -s 1 -d 2 -p tcp -e 1000 -c 2 -i 18 -a 2 -x {4.0 7.0 -1 ------- null}
- -t 0.312106666666667 -s 5 -d 2 -p tcp -e 1040 -c 3 -i 20 -a 3 -x {5.0 6.2 4 ------- null}
h -t 0.312106666666667 -s 5 -d 2 -p tcp -e 1040 -c 3 -i 20 -a 3 -x {5.0 6.2 -1 ------- null}
r -t 0.31256 -s 1 -d 2 -p tcp -e 1000 -c 2 -i 16 -a 2 -x {4.0 7.0 6 ------- null}
+ -t 0.31256 -s 2 -d 7 -p tcp -e 1000 -c 2 -i 16 -a 2 -x {4.0 7.0 6 ------- null}
- -t 0.31256 -s 2 -d 7 -p tcp -e 1000 -c 2 -i 16 -a 2 -x {4.0 7.0 6 ------- null}
h -t 0.31256 -s 2 -d 7 -p tcp -e 1000 -c 2 -i 16 -a 2 -x {4.0 7.0 -1 ------- null}
r -t 0.31744 -s 2 -d 5 -p ack -e 40 -c 3 -i 17 -a 3 -x {6.2 5.0 2 ------- null}
+ -t 0.31744 -s 5 -d 2 -p tcp -e 1040 -c 3 -i 21 -a 3 -x {5.0 6.2 5 ------- null}
+ -t 0.31744 -s 5 -d 2 -p tcp -e 1040 -c 3 -i 22 -a 3 -x {5.0 6.2 6 ------- null}
- -t 0.317653333333333 -s 5 -d 2 -p tcp -e 1040 -c 3 -i 21 -a 3 -x {5.0 6.2 5 ------- null}
h -t 0.317653333333333 -s 5 -d 2 -p tcp -e 1040 -c 3 -i 21 -a 3 -x {5.0 6.2 -1 ------- null}
r -t 0.317893333333333 -s 1 -d 2 -p tcp -e 1000 -c 2 -i 18 -a 2 -x {4.0 7.0 7 ------- null}
+ -t 0.317893333333333 -s 2 -d 7 -p tcp -e 1000 -c 2 -i 18 -a 2 -x {4.0 7.0 7 ------- null}
- -t 0.317893333333333 -s 2 -d 7 -p tcp -e 1000 -c 2 -i 18 -a 2 -x {4.0 7.0 7 ------- null}
h -t 0.317893333333333 -s 2 -d 7 -p tcp -e 1000 -c 2 -i 18 -a 2 -x {4.0 7.0 -1 ------- null}
r -t 0.322106666666667 -s 5 -d 2 -p tcp -e 1040 -c 3 -i 19 -a 3 -x {5.0 6.2 3 ------- null}
+ -t 0.322106666666667 -s 2 -d 1 -p tcp -e 1040 -c 3 -i 19 -a 3 -x {5.0 6.2 3 ------- null}
- -t 0.322106666666667 -s 2 -d 1 -p tcp -e 1040 -c 3 -i 19 -a 3 -x {5.0 6.2 3 ------- null}
h -t 0.322106666666667 -s 2 -d 1 -p tcp -e 1040 -c 3 -i 19 -a 3 -x {5.0 6.2 -1 ------- null}
r -t 0.322346666666667 -s 2 -d 7 -p tcp -e 1000 -c 2 -i 15 -a 2 -x {4.0 7.0 5 ------- null}
+ -t 0.322346666666667 -s 7 -d 2 -p ack -e 40 -c 2 -i 23 -a 2 -x {7.0 4.0 5 ------- null}
- -t 0.322346666666667 -s 7 -d 2 -p ack -e 40 -c 2 -i 23 -a 2 -x {7.0 4.0 5 ------- null}
h -t 0.322346666666667 -s 7 -d 2 -p ack -e 40 -c 2 -i 23 -a 2 -x {7.0 4.0 -1 ------- null}
- -t 0.3232 -s 5 -d 2 -p tcp -e 1040 -c 3 -i 22 -a 3 -x {5.0 6.2 6 ------- null}
h -t 0.3232 -s 5 -d 2 -p tcp -e 1040 -c 3 -i 22 -a 3 -x {5.0 6.2 -1 ------- null}
r -t 0.327653333333333 -s 5 -d 2 -p tcp -e 1040 -c 3 -i 20 -a 3 -x {5.0 6.2 4 ------- null}
+ -t 0.327653333333333 -s 2 -d 1 -p tcp -e 1040 -c 3 -i 20 -a 3 -x {5.0 6.2 4 ------- null}
- -t 0.327653333333333 -s 2 -d 1 -p tcp -e 1040 -c 3 -i 20 -a 3 -x {5.0 6.2 4 ------- null}
h -t 0.327653333333333 -s 2 -d 1 -p tcp -e 1040 -c 3 -i 20 -a 3 -x {5.0 6.2 -1 ------- null}
r -t 0.327893333333333 -s 2 -d 7 -p tcp -e 1000 -c 2 -i 16 -a 2 -x {4.0 7.0 6 ------- null}
+ -t 0.327893333333333 -s 7 -d 2 -p ack -e 40 -c 2 -i 24 -a 2 -x {7.0 4.0 6 ------- null}
- -t 0.327893333333333 -s 7 -d 2 -p ack -e 40 -c 2 -i 24 -a 2 -x {7.0 4.0 6 ------- null}
h -t 0.327893333333333 -s 7 -d 2 -p ack -e 40 -c 2 -i 24 -a 2 -x {7.0 4.0 -1 ------- null}
r -t 0.329653333333333 -s 2 -d 1 -p tcp -e 1040 -c 3 -i 19 -a 3 -x {5.0 6.2 3 ------- null}
+ -t 0.329653333333333 -s 1 -d 6 -p tcp -e 1040 -c 3 -i 19 -a 3 -x {5.0 6.2 3 ------- null}
- -t 0.329653333333333 -s 1 -d 6 -p tcp -e 1040 -c 3 -i 19 -a 3 -x {5.0 6.2 3 ------- null}
h -t 0.329653333333333 -s 1 -d 6 -p tcp -e 1040 -c 3 -i 19 -a 3 -x {5.0 6.2 -1 ------- null}
r -t 0.33256 -s 7 -d 2 -p ack -e 40 -c 2 -i 23 -a 2 -x {7.0 4.0 5 ------- null}
+ -t 0.33256 -s 2 -d 1 -p ack -e 40 -c 2 -i 23 -a 2 -x {7.0 4.0 5 ------- null}
r -t 0.3332 -s 5 -d 2 -p tcp -e 1040 -c 3 -i 21 -a 3 -x {5.0 6.2 5 ------- null}
+ -t 0.3332 -s 2 -d 1 -p tcp -e 1040 -c 3 -i 21 -a 3 -x {5.0 6.2 5 ------- null}
- -t 0.3332 -s 2 -d 1 -p ack -e 40 -c 2 -i 23 -a 2 -x {7.0 4.0 5 ------- null}
h -t 0.3332 -s 2 -d 1 -p ack -e 40 -c 2 -i 23 -a 2 -x {7.0 4.0 -1 ------- null}
r -t 0.333226666666667 -s 2 -d 7 -p tcp -e 1000 -c 2 -i 18 -a 2 -x {4.0 7.0 7 ------- null}
+ -t 0.333226666666667 -s 7 -d 2 -p ack -e 40 -c 2 -i 25 -a 2 -x {7.0 4.0 7 ------- null}
- -t 0.333226666666667 -s 7 -d 2 -p ack -e 40 -c 2 -i 25 -a 2 -x {7.0 4.0 7 ------- null}
h -t 0.333226666666667 -s 7 -d 2 -p ack -e 40 -c 2 -i 25 -a 2 -x {7.0 4.0 -1 ------- null}
- -t 0.333413333333333 -s 2 -d 1 -p tcp -e 1040 -c 3 -i 21 -a 3 -x {5.0 6.2 5 ------- null}
h -t 0.333413333333333 -s 2 -d 1 -p tcp -e 1040 -c 3 -i 21 -a 3 -x {5.0 6.2 -1 ------- null}
r -t 0.3352 -s 2 -d 1 -p tcp -e 1040 -c 3 -i 20 -a 3 -x {5.0 6.2 4 ------- null}
+ -t 0.3352 -s 1 -d 6 -p tcp -e 1040 -c 3 -i 20 -a 3 -x {5.0 6.2 4 ------- null}
- -t 0.3352 -s 1 -d 6 -p tcp -e 1040 -c 3 -i 20 -a 3 -x {5.0 6.2 4 ------- null}
h -t 0.3352 -s 1 -d 6 -p tcp -e 1040 -c 3 -i 20 -a 3 -x {5.0 6.2 -1 ------- null}
r -t 0.335413333333333 -s 2 -d 1 -p ack -e 40 -c 2 -i 23 -a 2 -x {7.0 4.0 5 ------- null}
+ -t 0.335413333333333 -s 1 -d 4 -p ack -e 40 -c 2 -i 23 -a 2 -x {7.0 4.0 5 ------- null}
- -t 0.335413333333333 -s 1 -d 4 -p ack -e 40 -c 2 -i 23 -a 2 -x {7.0 4.0 5 ------- null}
h -t 0.335413333333333 -s 1 -d 4 -p ack -e 40 -c 2 -i 23 -a 2 -x {7.0 4.0 -1 ------- null}
r -t 0.338106666666667 -s 7 -d 2 -p ack -e 40 -c 2 -i 24 -a 2 -x {7.0 4.0 6 ------- null}
+ -t 0.338106666666667 -s 2 -d 1 -p ack -e 40 -c 2 -i 24 -a 2 -x {7.0 4.0 6 ------- null}
r -t 0.338746666666667 -s 5 -d 2 -p tcp -e 1040 -c 3 -i 22 -a 3 -x {5.0 6.2 6 ------- null}
+ -t 0.338746666666667 -s 2 -d 1 -p tcp -e 1040 -c 3 -i 22 -a 3 -x {5.0 6.2 6 ------- null}
- -t 0.33896 -s 2 -d 1 -p ack -e 40 -c 2 -i 24 -a 2 -x {7.0 4.0 6 ------- null}
h -t 0.33896 -s 2 -d 1 -p ack -e 40 -c 2 -i 24 -a 2 -x {7.0 4.0 -1 ------- null}
- -t 0.339173333333333 -s 2 -d 1 -p tcp -e 1040 -c 3 -i 22 -a 3 -x {5.0 6.2 6 ------- null}
h -t 0.339173333333333 -s 2 -d 1 -p tcp -e 1040 -c 3 -i 22 -a 3 -x {5.0 6.2 -1 ------- null}
r -t 0.34096 -s 2 -d 1 -p tcp -e 1040 -c 3 -i 21 -a 3 -x {5.0 6.2 5 ------- null}
+ -t 0.34096 -s 1 -d 6 -p tcp -e 1040 -c 3 -i 21 -a 3 -x {5.0 6.2 5 ------- null}
- -t 0.34096 -s 1 -d 6 -p tcp -e 1040 -c 3 -i 21 -a 3 -x {5.0 6.2 5 ------- null}
h -t 0.34096 -s 1 -d 6 -p tcp -e 1040 -c 3 -i 21 -a 3 -x {5.0 6.2 -1 ------- null}
r -t 0.341173333333333 -s 2 -d 1 -p ack -e 40 -c 2 -i 24 -a 2 -x {7.0 4.0 6 ------- null}
+ -t 0.341173333333333 -s 1 -d 4 -p ack -e 40 -c 2 -i 24 -a 2 -x {7.0 4.0 6 ------- null}
- -t 0.341173333333333 -s 1 -d 4 -p ack -e 40 -c 2 -i 24 -a 2 -x {7.0 4.0 6 ------- null}
h -t 0.341173333333333 -s 1 -d 4 -p ack -e 40 -c 2 -i 24 -a 2 -x {7.0 4.0 -1 ------- null}
r -t 0.34344 -s 7 -d 2 -p ack -e 40 -c 2 -i 25 -a 2 -x {7.0 4.0 7 ------- null}
+ -t 0.34344 -s 2 -d 1 -p ack -e 40 -c 2 -i 25 -a 2 -x {7.0 4.0 7 ------- null}
- -t 0.34472 -s 2 -d 1 -p ack -e 40 -c 2 -i 25 -a 2 -x {7.0 4.0 7 ------- null}
h -t 0.34472 -s 2 -d 1 -p ack -e 40 -c 2 -i 25 -a 2 -x {7.0 4.0 -1 ------- null}
r -t 0.3452 -s 1 -d 6 -p tcp -e 1040 -c 3 -i 19 -a 3 -x {5.0 6.2 3 ------- null}
+ -t 0.3452 -s 6 -d 1 -p ack -e 40 -c 3 -i 26 -a 3 -x {6.2 5.0 3 ------- null}
- -t 0.3452 -s 6 -d 1 -p ack -e 40 -c 3 -i 26 -a 3 -x {6.2 5.0 3 ------- null}
h -t 0.3452 -s 6 -d 1 -p ack -e 40 -c 3 -i 26 -a 3 -x {6.2 5.0 -1 ------- null}
r -t 0.345626666666667 -s 1 -d 4 -p ack -e 40 -c 2 -i 23 -a 2 -x {7.0 4.0 5 ------- null}
+ -t 0.345626666666667 -s 4 -d 1 -p tcp -e 1000 -c 2 -i 27 -a 2 -x {4.0 7.0 8 ------- null}
- -t 0.345626666666667 -s 4 -d 1 -p tcp -e 1000 -c 2 -i 27 -a 2 -x {4.0 7.0 8 ------- null}
h -t 0.345626666666667 -s 4 -d 1 -p tcp -e 1000 -c 2 -i 27 -a 2 -x {4.0 7.0 -1 ------- null}
+ -t 0.345626666666667 -s 4 -d 1 -p tcp -e 1000 -c 2 -i 28 -a 2 -x {4.0 7.0 9 ------- null}
r -t 0.34672 -s 2 -d 1 -p tcp -e 1040 -c 3 -i 22 -a 3 -x {5.0 6.2 6 ------- null}
+ -t 0.34672 -s 1 -d 6 -p tcp -e 1040 -c 3 -i 22 -a 3 -x {5.0 6.2 6 ------- null}
- -t 0.34672 -s 1 -d 6 -p tcp -e 1040 -c 3 -i 22 -a 3 -x {5.0 6.2 6 ------- null}
h -t 0.34672 -s 1 -d 6 -p tcp -e 1040 -c 3 -i 22 -a 3 -x {5.0 6.2 -1 ------- null}
r -t 0.346933333333333 -s 2 -d 1 -p ack -e 40 -c 2 -i 25 -a 2 -x {7.0 4.0 7 ------- null}
+ -t 0.346933333333333 -s 1 -d 4 -p ack -e 40 -c 2 -i 25 -a 2 -x {7.0 4.0 7 ------- null}
- -t 0.346933333333333 -s 1 -d 4 -p ack -e 40 -c 2 -i 25 -a 2 -x {7.0 4.0 7 ------- null}
h -t 0.346933333333333 -s 1 -d 4 -p ack -e 40 -c 2 -i 25 -a 2 -x {7.0 4.0 -1 ------- null}
r -t 0.350746666666667 -s 1 -d 6 -p tcp -e 1040 -c 3 -i 20 -a 3 -x {5.0 6.2 4 ------- null}
+ -t 0.350746666666667 -s 6 -d 1 -p ack -e 40 -c 3 -i 29 -a 3 -x {6.2 5.0 4 ------- null}
- -t 0.350746666666667 -s 6 -d 1 -p ack -e 40 -c 3 -i 29 -a 3 -x {6.2 5.0 4 ------- null}
h -t 0.350746666666667 -s 6 -d 1 -p ack -e 40 -c 3 -i 29 -a 3 -x {6.2 5.0 -1 ------- null}
- -t 0.35096 -s 4 -d 1 -p tcp -e 1000 -c 2 -i 28 -a 2 -x {4.0 7.0 9 ------- null}
h -t 0.35096 -s 4 -d 1 -p tcp -e 1000 -c 2 -i 28 -a 2 -x {4.0 7.0 -1 ------- null}
r -t 0.351386666666667 -s 1 -d 4 -p ack -e 40 -c 2 -i 24 -a 2 -x {7.0 4.0 6 ------- null}
+ -t 0.351386666666667 -s 4 -d 1 -p tcp -e 1000 -c 2 -i 30 -a 2 -x {4.0 7.0 10 ------- null}
+ -t 0.351386666666667 -s 4 -d 1 -p tcp -e 1000 -c 2 -i 31 -a 2 -x {4.0 7.0 11 ------- null}
r -t 0.355413333333333 -s 6 -d 1 -p ack -e 40 -c 3 -i 26 -a 3 -x {6.2 5.0 3 ------- null}
+ -t 0.355413333333333 -s 1 -d 2 -p ack -e 40 -c 3 -i 26 -a 3 -x {6.2 5.0 3 ------- null}
- -t 0.355413333333333 -s 1 -d 2 -p ack -e 40 -c 3 -i 26 -a 3 -x {6.2 5.0 3 ------- null}
h -t 0.355413333333333 -s 1 -d 2 -p ack -e 40 -c 3 -i 26 -a 3 -x {6.2 5.0 -1 ------- null}
- -t 0.356293333333333 -s 4 -d 1 -p tcp -e 1000 -c 2 -i 30 -a 2 -x {4.0 7.0 10 ------- null}
h -t 0.356293333333333 -s 4 -d 1 -p tcp -e 1000 -c 2 -i 30 -a 2 -x {4.0 7.0 -1 ------- null}
r -t 0.356506666666667 -s 1 -d 6 -p tcp -e 1040 -c 3 -i 21 -a 3 -x {5.0 6.2 5 ------- null}
+ -t 0.356506666666667 -s 6 -d 1 -p ack -e 40 -c 3 -i 32 -a 3 -x {6.2 5.0 5 ------- null}
- -t 0.356506666666667 -s 6 -d 1 -p ack -e 40 -c 3 -i 32 -a 3 -x {6.2 5.0 5 ------- null}