+ 0.5 0 1 cbr 210 ------- 0 0.0 3.0 0 0
- 0.5 0 1 cbr 210 ------- 0 0.0 3.0 0 0
r 0.502336 0 1 cbr 210 ------- 0 0.0 3.0 0 0
+ 0.502336 1 2 cbr 210 ------- 0 0.0 3.0 0 0
- 0.502336 1 2 cbr 210 ------- 0 0.0 3.0 0 0
+ 0.50375 0 1 cbr 210 ------- 0 0.0 3.0 1 1
- 0.50375 0 1 cbr 210 ------- 0 0.0 3.0 1 1
r 0.506086 0 1 cbr 210 ------- 0 0.0 3.0 1 1
+ 0.506086 1 2 cbr 210 ------- 0 0.0 3.0 1 1
- 0.506086 1 2 cbr 210 ------- 0 0.0 3.0 1 1
+ 0.5075 0 1 cbr 210 ------- 0 0.0 3.0 2 2
- 0.5075 0 1 cbr 210 ------- 0 0.0 3.0 2 2
r 0.507696 1 2 cbr 210 ------- 0 0.0 3.0 0 0
+ 0.507696 2 3 cbr 210 ------- 0 0.0 3.0 0 0
- 0.507696 2 3 cbr 210 ------- 0 0.0 3.0 0 0
r 0.509836 0 1 cbr 210 ------- 0 0.0 3.0 2 2
+ 0.509836 1 2 cbr 210 ------- 0 0.0 3.0 2 2
- 0.509836 1 2 cbr 210 ------- 0 0.0 3.0 2 2
r 0.510032 2 3 cbr 210 ------- 0 0.0 3.0 0 0
+ 0.51125 0 1 cbr 210 ------- 0 0.0 3.0 3 3
- 0.51125 0 1 cbr 210 ------- 0 0.0 3.0 3 3
r 0.511446 1 2 cbr 210 ------- 0 0.0 3.0 1 1
+ 0.511446 2 3 cbr 210 ------- 0 0.0 3.0 1 1
- 0.511446 2 3 cbr 210 ------- 0 0.0 3.0 1 1
r 0.513586 0 1 cbr 210 ------- 0 0.0 3.0 3 3
+ 0.513586 1 2 cbr 210 ------- 0 0.0 3.0 3 3
- 0.513586 1 2 cbr 210 ------- 0 0.0 3.0 3 3
r 0.513782 2 3 cbr 210 ------- 0 0.0 3.0 1 1
+ 0.515 0 1 cbr 210 ------- 0 0.0 3.0 4 4
- 0.515 0 1 cbr 210 ------- 0 0.0 3.0 4 4
r 0.515196 1 2 cbr 210 ------- 0 0.0 3.0 2 2
+ 0.515196 2 3 cbr 210 ------- 0 0.0 3.0 2 2
- 0.515196 2 3 cbr 210 ------- 0 0.0 3.0 2 2
r 0.517336 0 1 cbr 210 ------- 0 0.0 3.0 4 4
+ 0.517336 1 2 cbr 210 ------- 0 0.0 3.0 4 4
- 0.517336 1 2 cbr 210 ------- 0 0.0 3.0 4 4
r 0.517532 2 3 cbr 210 ------- 0 0.0 3.0 2 2
+ 0.51875 0 1 cbr 210 ------- 0 0.0 3.0 5 5
- 0.51875 0 1 cbr 210 ------- 0 0.0 3.0 5 5
r 0.518946 1 2 cbr 210 ------- 0 0.0 3.0 3 3
+ 0.518946 2 3 cbr 210 ------- 0 0.0 3.0 3 3
- 0.518946 2 3 cbr 210 ------- 0 0.0 3.0 3 3
r 0.521086 0 1 cbr 210 ------- 0 0.0 3.0 5 5
+ 0.521086 1 2 cbr 210 ------- 0 0.0 3.0 5 5
- 0.521086 1 2 cbr 210 ------- 0 0.0 3.0 5 5
r 0.521282 2 3 cbr 210 ------- 0 0.0 3.0 3 3
+ 0.5225 0 1 cbr 210 ------- 0 0.0 3.0 6 6
- 0.5225 0 1 cbr 210 ------- 0 0.0 3.0 6 6
r 0.522696 1 2 cbr 210 ------- 0 0.0 3.0 4 4
+ 0.522696 2 3 cbr 210 ------- 0 0.0 3.0 4 4
- 0.522696 2 3 cbr 210 ------- 0 0.0 3.0 4 4
r 0.524836 0 1 cbr 210 ------- 0 0.0 3.0 6 6
+ 0.524836 1 2 cbr 210 ------- 0 0.0 3.0 6 6
- 0.524836 1 2 cbr 210 ------- 0 0.0 3.0 6 6
r 0.525032 2 3 cbr 210 ------- 0 0.0 3.0 4 4
+ 0.52625 0 1 cbr 210 ------- 0 0.0 3.0 7 7
- 0.52625 0 1 cbr 210 ------- 0 0.0 3.0 7 7
r 0.526446 1 2 cbr 210 ------- 0 0.0 3.0 5 5
+ 0.526446 2 3 cbr 210 ------- 0 0.0 3.0 5 5
- 0.526446 2 3 cbr 210 ------- 0 0.0 3.0 5 5
r 0.528586 0 1 cbr 210 ------- 0 0.0 3.0 7 7
+ 0.528586 1 2 cbr 210 ------- 0 0.0 3.0 7 7
- 0.528586 1 2 cbr 210 ------- 0 0.0 3.0 7 7
r 0.528782 2 3 cbr 210 ------- 0 0.0 3.0 5 5
+ 0.53 0 1 cbr 210 ------- 0 0.0 3.0 8 8
- 0.53 0 1 cbr 210 ------- 0 0.0 3.0 8 8
r 0.530196 1 2 cbr 210 ------- 0 0.0 3.0 6 6
+ 0.530196 2 3 cbr 210 ------- 0 0.0 3.0 6 6
- 0.530196 2 3 cbr 210 ------- 0 0.0 3.0 6 6
r 0.532336 0 1 cbr 210 ------- 0 0.0 3.0 8 8
+ 0.532336 1 2 cbr 210 ------- 0 0.0 3.0 8 8
- 0.532336 1 2 cbr 210 ------- 0 0.0 3.0 8 8
r 0.532532 2 3 cbr 210 ------- 0 0.0 3.0 6 6
+ 0.53375 0 1 cbr 210 ------- 0 0.0 3.0 9 9
- 0.53375 0 1 cbr 210 ------- 0 0.0 3.0 9 9
r 0.533946 1 2 cbr 210 ------- 0 0.0 3.0 7 7
+ 0.533946 2 3 cbr 210 ------- 0 0.0 3.0 7 7
- 0.533946 2 3 cbr 210 ------- 0 0.0 3.0 7 7
r 0.536086 0 1 cbr 210 ------- 0 0.0 3.0 9 9
+ 0.536086 1 2 cbr 210 ------- 0 0.0 3.0 9 9
- 0.536086 1 2 cbr 210 ------- 0 0.0 3.0 9 9
r 0.536282 2 3 cbr 210 ------- 0 0.0 3.0 7 7
+ 0.5375 0 1 cbr 210 ------- 0 0.0 3.0 10 10
- 0.5375 0 1 cbr 210 ------- 0 0.0 3.0 10 10
r 0.537696 1 2 cbr 210 ------- 0 0.0 3.0 8 8
+ 0.537696 2 3 cbr 210 ------- 0 0.0 3.0 8 8
- 0.537696 2 3 cbr 210 ------- 0 0.0 3.0 8 8
r 0.539836 0 1 cbr 210 ------- 0 0.0 3.0 10 10
+ 0.539836 1 2 cbr 210 ------- 0 0.0 3.0 10 10
- 0.539836 1 2 cbr 210 ------- 0 0.0 3.0 10 10
r 0.540032 2 3 cbr 210 ------- 0 0.0 3.0 8 8
+ 0.54125 0 1 cbr 210 ------- 0 0.0 3.0 11 11
- 0.54125 0 1 cbr 210 ------- 0 0.0 3.0 11 11
r 0.541446 1 2 cbr 210 ------- 0 0.0 3.0 9 9
+ 0.541446 2 3 cbr 210 ------- 0 0.0 3.0 9 9
- 0.541446 2 3 cbr 210 ------- 0 0.0 3.0 9 9
r 0.543586 0 1 cbr 210 ------- 0 0.0 3.0 11 11
+ 0.543586 1 2 cbr 210 ------- 0 0.0 3.0 11 11
- 0.543586 1 2 cbr 210 ------- 0 0.0 3.0 11 11
r 0.543782 2 3 cbr 210 ------- 0 0.0 3.0 9 9
+ 0.545 0 1 cbr 210 ------- 0 0.0 3.0 12 12
- 0.545 0 1 cbr 210 ------- 0 0.0 3.0 12 12
r 0.545196 1 2 cbr 210 ------- 0 0.0 3.0 10 10
+ 0.545196 2 3 cbr 210 ------- 0 0.0 3.0 10 10
- 0.545196 2 3 cbr 210 ------- 0 0.0 3.0 10 10
r 0.547336 0 1 cbr 210 ------- 0 0.0 3.0 12 12
+ 0.547336 1 2 cbr 210 ------- 0 0.0 3.0 12 12
- 0.547336 1 2 cbr 210 ------- 0 0.0 3.0 12 12
r 0.547532 2 3 cbr 210 ------- 0 0.0 3.0 10 10
+ 0.54875 0 1 cbr 210 ------- 0 0.0 3.0 13 13
- 0.54875 0 1 cbr 210 ------- 0 0.0 3.0 13 13
r 0.548946 1 2 cbr 210 ------- 0 0.0 3.0 11 11
+ 0.548946 2 3 cbr 210 ------- 0 0.0 3.0 11 11
- 0.548946 2 3 cbr 210 ------- 0 0.0 3.0 11 11
r 0.551086 0 1 cbr 210 ------- 0 0.0 3.0 13 13
+ 0.551086 1 2 cbr 210 ------- 0 0.0 3.0 13 13
- 0.551086 1 2 cbr 210 ------- 0 0.0 3.0 13 13
r 0.551282 2 3 cbr 210 ------- 0 0.0 3.0 11 11
+ 0.5525 0 1 cbr 210 ------- 0 0.0 3.0 14 14
- 0.5525 0 1 cbr 210 ------- 0 0.0 3.0 14 14
r 0.552696 1 2 cbr 210 ------- 0 0.0 3.0 12 12
+ 0.552696 2 3 cbr 210 ------- 0 0.0 3.0 12 12
- 0.552696 2 3 cbr 210 ------- 0 0.0 3.0 12 12
r 0.554836 0 1 cbr 210 ------- 0 0.0 3.0 14 14
+ 0.554836 1 2 cbr 210 ------- 0 0.0 3.0 14 14
- 0.554836 1 2 cbr 210 ------- 0 0.0 3.0 14 14
r 0.555032 2 3 cbr 210 ------- 0 0.0 3.0 12 12
+ 0.55625 0 1 cbr 210 ------- 0 0.0 3.0 15 15
- 0.55625 0 1 cbr 210 ------- 0 0.0 3.0 15 15
r 0.556446 1 2 cbr 210 ------- 0 0.0 3.0 13 13
+ 0.556446 2 3 cbr 210 ------- 0 0.0 3.0 13 13
- 0.556446 2 3 cbr 210 ------- 0 0.0 3.0 13 13
r 0.558586 0 1 cbr 210 ------- 0 0.0 3.0 15 15
+ 0.558586 1 2 cbr 210 ------- 0 0.0 3.0 15 15
- 0.558586 1 2 cbr 210 ------- 0 0.0 3.0 15 15
r 0.558782 2 3 cbr 210 ------- 0 0.0 3.0 13 13
+ 0.56 0 1 cbr 210 ------- 0 0.0 3.0 16 16
- 0.56 0 1 cbr 210 ------- 0 0.0 3.0 16 16
r 0.560196 1 2 cbr 210 ------- 0 0.0 3.0 14 14
+ 0.560196 2 3 cbr 210 ------- 0 0.0 3.0 14 14
- 0.560196 2 3 cbr 210 ------- 0 0.0 3.0 14 14
r 0.562336 0 1 cbr 210 ------- 0 0.0 3.0 16 16
+ 0.562336 1 2 cbr 210 ------- 0 0.0 3.0 16 16
- 0.562336 1 2 cbr 210 ------- 0 0.0 3.0 16 16
r 0.562532 2 3 cbr 210 ------- 0 0.0 3.0 14 14
+ 0.56375 0 1 cbr 210 ------- 0 0.0 3.0 17 17
- 0.56375 0 1 cbr 210 ------- 0 0.0 3.0 17 17
r 0.563946 1 2 cbr 210 ------- 0 0.0 3.0 15 15
+ 0.563946 2 3 cbr 210 ------- 0 0.0 3.0 15 15
- 0.563946 2 3 cbr 210 ------- 0 0.0 3.0 15 15
r 0.566086 0 1 cbr 210 ------- 0 0.0 3.0 17 17
+ 0.566086 1 2 cbr 210 ------- 0 0.0 3.0 17 17
- 0.566086 1 2 cbr 210 ------- 0 0.0 3.0 17 17
r 0.566282 2 3 cbr 210 ------- 0 0.0 3.0 15 15
+ 0.5675 0 1 cbr 210 ------- 0 0.0 3.0 18 18
- 0.5675 0 1 cbr 210 ------- 0 0.0 3.0 18 18
r 0.567696 1 2 cbr 210 ------- 0 0.0 3.0 16 16
+ 0.567696 2 3 cbr 210 ------- 0 0.0 3.0 16 16
- 0.567696 2 3 cbr 210 ------- 0 0.0 3.0 16 16
r 0.569836 0 1 cbr 210 ------- 0 0.0 3.0 18 18
+ 0.569836 1 2 cbr 210 ------- 0 0.0 3.0 18 18
- 0.569836 1 2 cbr 210 ------- 0 0.0 3.0 18 18
r 0.570032 2 3 cbr 210 ------- 0 0.0 3.0 16 16
+ 0.57125 0 1 cbr 210 ------- 0 0.0 3.0 19 19
- 0.57125 0 1 cbr 210 ------- 0 0.0 3.0 19 19
r 0.571446 1 2 cbr 210 ------- 0 0.0 3.0 17 17
+ 0.571446 2 3 cbr 210 ------- 0 0.0 3.0 17 17
- 0.571446 2 3 cbr 210 ------- 0 0.0 3.0 17 17
r 0.573586 0 1 cbr 210 ------- 0 0.0 3.0 19 19
+ 0.573586 1 2 cbr 210 ------- 0 0.0 3.0 19 19
- 0.573586 1 2 cbr 210 ------- 0 0.0 3.0 19 19
r 0.573782 2 3 cbr 210 ------- 0 0.0 3.0 17 17
+ 0.575 0 1 cbr 210 ------- 0 0.0 3.0 20 20
- 0.575 0 1 cbr 210 ------- 0 0.0 3.0 20 20
r 0.575196 1 2 cbr 210 ------- 0 0.0 3.0 18 18
+ 0.575196 2 3 cbr 210 ------- 0 0.0 3.0 18 18
- 0.575196 2 3 cbr 210 ------- 0 0.0 3.0 18 18
r 0.577336 0 1 cbr 210 ------- 0 0.0 3.0 20 20
+ 0.577336 1 2 cbr 210 ------- 0 0.0 3.0 20 20
- 0.577336 1 2 cbr 210 ------- 0 0.0 3.0 20 20
r 0.577532 2 3 cbr 210 ------- 0 0.0 3.0 18 18
+ 0.57875 0 1 cbr 210 ------- 0 0.0 3.0 21 21
- 0.57875 0 1 cbr 210 ------- 0 0.0 3.0 21 21
r 0.578946 1 2 cbr 210 ------- 0 0.0 3.0 19 19
+ 0.578946 2 3 cbr 210 ------- 0 0.0 3.0 19 19
- 0.578946 2 3 cbr 210 ------- 0 0.0 3.0 19 19
r 0.581086 0 1 cbr 210 ------- 0 0.0 3.0 21 21
+ 0.581086 1 2 cbr 210 ------- 0 0.0 3.0 21 21
- 0.581086 1 2 cbr 210 ------- 0 0.0 3.0 21 21
r 0.581282 2 3 cbr 210 ------- 0 0.0 3.0 19 19
+ 0.5825 0 1 cbr 210 ------- 0 0.0 3.0 22 22
- 0.5825 0 1 cbr 210 ------- 0 0.0 3.0 22 22
r 0.582696 1 2 cbr 210 ------- 0 0.0 3.0 20 20
+ 0.582696 2 3 cbr 210 ------- 0 0.0 3.0 20 20
- 0.582696 2 3 cbr 210 ------- 0 0.0 3.0 20 20
r 0.584836 0 1 cbr 210 ------- 0 0.0 3.0 22 22
+ 0.584836 1 2 cbr 210 ------- 0 0.0 3.0 22 22
- 0.584836 1 2 cbr 210 ------- 0 0.0 3.0 22 22
r 0.585032 2 3 cbr 210 ------- 0 0.0 3.0 20 20
+ 0.58625 0 1 cbr 210 ------- 0 0.0 3.0 23 23
- 0.58625 0 1 cbr 210 ------- 0 0.0 3.0 23 23
r 0.586446 1 2 cbr 210 ------- 0 0.0 3.0 21 21
+ 0.586446 2 3 cbr 210 ------- 0 0.0 3.0 21 21
- 0.586446 2 3 cbr 210 ------- 0 0.0 3.0 21 21
r 0.588586 0 1 cbr 210 ------- 0 0.0 3.0 23 23
+ 0.588586 1 2 cbr 210 ------- 0 0.0 3.0 23 23
- 0.588586 1 2 cbr 210 ------- 0 0.0 3.0 23 23
r 0.588782 2 3 cbr 210 ------- 0 0.0 3.0 21 21
+ 0.59 0 1 cbr 210 ------- 0 0.0 3.0 24 24
- 0.59 0 1 cbr 210 ------- 0 0.0 3.0 24 24
r 0.590196 1 2 cbr 210 ------- 0 0.0 3.0 22 22
+ 0.590196 2 3 cbr 210 ------- 0 0.0 3.0 22 22
- 0.590196 2 3 cbr 210 ------- 0 0.0 3.0 22 22
r 0.592336 0 1 cbr 210 ------- 0 0.0 3.0 24 24
+ 0.592336 1 2 cbr 210 ------- 0 0.0 3.0 24 24
- 0.592336 1 2 cbr 210 ------- 0 0.0 3.0 24 24
r 0.592532 2 3 cbr 210 ------- 0 0.0 3.0 22 22
+ 0.59375 0 1 cbr 210 ------- 0 0.0 3.0 25 25
- 0.59375 0 1 cbr 210 ------- 0 0.0 3.0 25 25
r 0.593946 1 2 cbr 210 ------- 0 0.0 3.0 23 23
+ 0.593946 2 3 cbr 210 ------- 0 0.0 3.0 23 23
- 0.593946 2 3 cbr 210 ------- 0 0.0 3.0 23 23
r 0.596086 0 1 cbr 210 ------- 0 0.0 3.0 25 25
+ 0.596086 1 2 cbr 210 ------- 0 0.0 3.0 25 25
- 0.596086 1 2 cbr 210 ------- 0 0.0 3.0 25 25
r 0.596282 2 3 cbr 210 ------- 0 0.0 3.0 23 23
+ 0.5975 0 1 cbr 210 ------- 0 0.0 3.0 26 26
- 0.5975 0 1 cbr 210 ------- 0 0.0 3.0 26 26
r 0.597696 1 2 cbr 210 ------- 0 0.0 3.0 24 24
+ 0.597696 2 3 cbr 210 ------- 0 0.0 3.0 24 24
- 0.597696 2 3 cbr 210 ------- 0 0.0 3.0 24 24
r 0.599836 0 1 cbr 210 ------- 0 0.0 3.0 26 26
+ 0.599836 1 2 cbr 210 ------- 0 0.0 3.0 26 26
- 0.599836 1 2 cbr 210 ------- 0 0.0 3.0 26 26
r 0.600032 2 3 cbr 210 ------- 0 0.0 3.0 24 24
+ 0.60125 0 1 cbr 210 ------- 0 0.0 3.0 27 27
- 0.60125 0 1 cbr 210 ------- 0 0.0 3.0 27 27
r 0.601446 1 2 cbr 210 ------- 0 0.0 3.0 25 25
+ 0.601446 2 3 cbr 210 ------- 0 0.0 3.0 25 25
- 0.601446 2 3 cbr 210 ------- 0 0.0 3.0 25 25
r 0.603586 0 1 cbr 210 ------- 0 0.0 3.0 27 27
+ 0.603586 1 2 cbr 210 ------- 0 0.0 3.0 27 27
- 0.603586 1 2 cbr 210 ------- 0 0.0 3.0 27 27
r 0.603782 2 3 cbr 210 ------- 0 0.0 3.0 25 25
+ 0.605 0 1 cbr 210 ------- 0 0.0 3.0 28 28
- 0.605 0 1 cbr 210 ------- 0 0.0 3.0 28 28
r 0.605196 1 2 cbr 210 ------- 0 0.0 3.0 26 26
+ 0.605196 2 3 cbr 210 ------- 0 0.0 3.0 26 26
- 0.605196 2 3 cbr 210 ------- 0 0.0 3.0 26 26
r 0.607336 0 1 cbr 210 ------- 0 0.0 3.0 28 28
+ 0.607336 1 2 cbr 210 ------- 0 0.0 3.0 28 28
- 0.607336 1 2 cbr 210 ------- 0 0.0 3.0 28 28
r 0.607532 2 3 cbr 210 ------- 0 0.0 3.0 26 26
+ 0.60875 0 1 cbr 210 ------- 0 0.0 3.0 29 29
- 0.60875 0 1 cbr 210 ------- 0 0.0 3.0 29 29
r 0.608946 1 2 cbr 210 ------- 0 0.0 3.0 27 27
+ 0.608946 2 3 cbr 210 ------- 0 0.0 3.0 27 27
- 0.608946 2 3 cbr 210 ------- 0 0.0 3.0 27 27
r 0.611086 0 1 cbr 210 ------- 0 0.0 3.0 29 29
+ 0.611086 1 2 cbr 210 ------- 0 0.0 3.0 29 29
- 0.611086 1 2 cbr 210 ------- 0 0.0 3.0 29 29
r 0.611282 2 3 cbr 210 ------- 0 0.0 3.0 27 27
+ 0.6125 0 1 cbr 210 ------- 0 0.0 3.0 30 30
- 0.6125 0 1 cbr 210 ------- 0 0.0 3.0 30 30
r 0.612696 1 2 cbr 210 ------- 0 0.0 3.0 28 28
+ 0.612696 2 3 cbr 210 ------- 0 0.0 3.0 28 28
- 0.612696 2 3 cbr 210 ------- 0 0.0 3.0 28 28
r 0.614836 0 1 cbr 210 ------- 0 0.0 3.0 30 30
+ 0.614836 1 2 cbr 210 ------- 0 0.0 3.0 30 30
- 0.614836 1 2 cbr 210 ------- 0 0.0 3.0 30 30
r 0.615032 2 3 cbr 210 ------- 0 0.0 3.0 28 28
+ 0.61625 0 1 cbr 210 ------- 0 0.0 3.0 31 31
- 0.61625 0 1 cbr 210 ------- 0 0.0 3.0 31 31
r 0.616446 1 2 cbr 210 ------- 0 0.0 3.0 29 29
+ 0.616446 2 3 cbr 210 ------- 0 0.0 3.0 29 29
- 0.616446 2 3 cbr 210 ------- 0 0.0 3.0 29 29
r 0.618586 0 1 cbr 210 ------- 0 0.0 3.0 31 31
+ 0.618586 1 2 cbr 210 ------- 0 0.0 3.0 31 31
- 0.618586 1 2 cbr 210 ------- 0 0.0 3.0 31 31
r 0.618782 2 3 cbr 210 ------- 0 0.0 3.0 29 29
+ 0.62 0 1 cbr 210 ------- 0 0.0 3.0 32 32
- 0.62 0 1 cbr 210 ------- 0 0.0 3.0 32 32
r 0.620196 1 2 cbr 210 ------- 0 0.0 3.0 30 30
+ 0.620196 2 3 cbr 210 ------- 0 0.0 3.0 30 30
- 0.620196 2 3 cbr 210 ------- 0 0.0 3.0 30 30
r 0.622336 0 1 cbr 210 ------- 0 0.0 3.0 32 32
+ 0.622336 1 2 cbr 210 ------- 0 0.0 3.0 32 32
- 0.622336 1 2 cbr 210 ------- 0 0.0 3.0 32 32
r 0.622532 2 3 cbr 210 ------- 0 0.0 3.0 30 30
+ 0.62375 0 1 cbr 210 ------- 0 0.0 3.0 33 33
- 0.62375 0 1 cbr 210 ------- 0 0.0 3.0 33 33
r 0.623946 1 2 cbr 210 ------- 0 0.0 3.0 31 31
+ 0.623946 2 3 cbr 210 ------- 0 0.0 3.0 31 31
- 0.623946 2 3 cbr 210 ------- 0 0.0 3.0 31 31
r 0.626086 0 1 cbr 210 ------- 0 0.0 3.0 33 33
+ 0.626086 1 2 cbr 210 ------- 0 0.0 3.0 33 33
- 0.626086 1 2 cbr 210 ------- 0 0.0 3.0 33 33
r 0.626282 2 3 cbr 210 ------- 0 0.0 3.0 31 31
+ 0.6275 0 1 cbr 210 ------- 0 0.0 3.0 34 34
- 0.6275 0 1 cbr 210 ------- 0 0.0 3.0 34 34
r 0.627696 1 2 cbr 210 ------- 0 0.0 3.0 32 32
+ 0.627696 2 3 cbr 210 ------- 0 0.0 3.0 32 32
- 0.627696 2 3 cbr 210 ------- 0 0.0 3.0 32 32
r 0.629836 0 1 cbr 210 ------- 0 0.0 3.0 34 34
+ 0.629836 1 2 cbr 210 ------- 0 0.0 3.0 34 34
- 0.629836 1 2 cbr 210 ------- 0 0.0 3.0 34 34
r 0.630032 2 3 cbr 210 ------- 0 0.0 3.0 32 32
+ 0.63125 0 1 cbr 210 ------- 0 0.0 3.0 35 35
- 0.63125 0 1 cbr 210 ------- 0 0.0 3.0 35 35
r 0.631446 1 2 cbr 210 ------- 0 0.0 3.0 33 33
+ 0.631446 2 3 cbr 210 ------- 0 0.0 3.0 33 33
- 0.631446 2 3 cbr 210 ------- 0 0.0 3.0 33 33
r 0.633586 0 1 cbr 210 ------- 0 0.0 3.0 35 35
+ 0.633586 1 2 cbr 210 ------- 0 0.0 3.0 35 35
- 0.633586 1 2 cbr 210 ------- 0 0.0 3.0 35 35
r 0.633782 2 3 cbr 210 ------- 0 0.0 3.0 33 33
+ 0.635 0 1 cbr 210 ------- 0 0.0 3.0 36 36
- 0.635 0 1 cbr 210 ------- 0 0.0 3.0 36 36
r 0.635196 1 2 cbr 210 ------- 0 0.0 3.0 34 34
+ 0.635196 2 3 cbr 210 ------- 0 0.0 3.0 34 34
- 0.635196 2 3 cbr 210 ------- 0 0.0 3.0 34 34
r 0.637336 0 1 cbr 210 ------- 0 0.0 3.0 36 36
+ 0.637336 1 2 cbr 210 ------- 0 0.0 3.0 36 36
- 0.637336 1 2 cbr 210 ------- 0 0.0 3.0 36 36
r 0.637532 2 3 cbr 210 ------- 0 0.0 3.0 34 34
+ 0.63875 0 1 cbr 210 ------- 0 0.0 3.0 37 37
- 0.63875 0 1 cbr 210 ------- 0 0.0 3.0 37 37
r 0.638946 1 2 cbr 210 ------- 0 0.0 3.0 35 35
+ 0.638946 2 3 cbr 210 ------- 0 0.0 3.0 35 35
- 0.638946 2 3 cbr 210 ------- 0 0.0 3.0 35 35
r 0.641086 0 1 cbr 210 ------- 0 0.0 3.0 37 37
+ 0.641086 1 2 cbr 210 ------- 0 0.0 3.0 37 37
- 0.641086 1 2 cbr 210 ------- 0 0.0 3.0 37 37
r 0.641282 2 3 cbr 210 ------- 0 0.0 3.0 35 35
+ 0.6425 0 1 cbr 210 ------- 0 0.0 3.0 38 38
- 0.6425 0 1 cbr 210 ------- 0 0.0 3.0 38 38
r 0.642696 1 2 cbr 210 ------- 0 0.0 3.0 36 36
+ 0.642696 2 3 cbr 210 ------- 0 0.0 3.0 36 36
- 0.642696 2 3 cbr 210 ------- 0 0.0 3.0 36 36
r 0.644836 0 1 cbr 210 ------- 0 0.0 3.0 38 38
+ 0.644836 1 2 cbr 210 ------- 0 0.0 3.0 38 38
- 0.644836 1 2 cbr 210 ------- 0 0.0 3.0 38 38
r 0.645032 2 3 cbr 210 ------- 0 0.0 3.0 36 36
+ 0.64625 0 1 cbr 210 ------- 0 0.0 3.0 39 39
- 0.64625 0 1 cbr 210 ------- 0 0.0 3.0 39 39
r 0.646446 1 2 cbr 210 ------- 0 0.0 3.0 37 37
+ 0.646446 2 3 cbr 210 ------- 0 0.0 3.0 37 37
- 0.646446 2 3 cbr 210 ------- 0 0.0 3.0 37 37
r 0.648586 0 1 cbr 210 ------- 0 0.0 3.0 39 39
+ 0.648586 1 2 cbr 210 ------- 0 0.0 3.0 39 39
- 0.648586 1 2 cbr 210 ------- 0 0.0 3.0 39 39
r 0.648782 2 3 cbr 210 ------- 0 0.0 3.0 37 37
+ 0.65 0 1 cbr 210 ------- 0 0.0 3.0 40 40
- 0.65 0 1 cbr 210 ------- 0 0.0 3.0 40 40
r 0.650196 1 2 cbr 210 ------- 0 0.0 3.0 38 38
+ 0.650196 2 3 cbr 210 ------- 0 0.0 3.0 38 38
- 0.650196 2 3 cbr 210 ------- 0 0.0 3.0 38 38
r 0.652336 0 1 cbr 210 ------- 0 0.0 3.0 40 40
+ 0.652336 1 2 cbr 210 ------- 0 0.0 3.0 40 40
- 0.652336 1 2 cbr 210 ------- 0 0.0 3.0 40 40
r 0.652532 2 3 cbr 210 ------- 0 0.0 3.0 38 38
+ 0.65375 0 1 cbr 210 ------- 0 0.0 3.0 41 41
- 0.65375 0 1 cbr 210 ------- 0 0.0 3.0 41 41
r 0.653946 1 2 cbr 210 ------- 0 0.0 3.0 39 39
+ 0.653946 2 3 cbr 210 ------- 0 0.0 3.0 39 39
- 0.653946 2 3 cbr 210 ------- 0 0.0 3.0 39 39
r 0.656086 0 1 cbr 210 ------- 0 0.0 3.0 41 41
+ 0.656086 1 2 cbr 210 ------- 0 0.0 3.0 41 41
- 0.656086 1 2 cbr 210 ------- 0 0.0 3.0 41 41
r 0.656282 2 3 cbr 210 ------- 0 0.0 3.0 39 39
+ 0.6575 0 1 cbr 210 ------- 0 0.0 3.0 42 42
- 0.6575 0 1 cbr 210 ------- 0 0.0 3.0 42 42
r 0.657696 1 2 cbr 210 ------- 0 0.0 3.0 40 40
+ 0.657696 2 3 cbr 210 ------- 0 0.0 3.0 40 40
- 0.657696 2 3 cbr 210 ------- 0 0.0 3.0 40 40
r 0.659836 0 1 cbr 210 ------- 0 0.0 3.0 42 42
+ 0.659836 1 2 cbr 210 ------- 0 0.0 3.0 42 42
- 0.659836 1 2 cbr 210 ------- 0 0.0 3.0 42 42
r 0.660032 2 3 cbr 210 ------- 0 0.0 3.0 40 40
+ 0.66125 0 1 cbr 210 ------- 0 0.0 3.0 43 43
- 0.66125 0 1 cbr 210 ------- 0 0.0 3.0 43 43
r 0.661446 1 2 cbr 210 ------- 0 0.0 3.0 41 41
+ 0.661446 2 3 cbr 210 ------- 0 0.0 3.0 41 41
- 0.661446 2 3 cbr 210 ------- 0 0.0 3.0 41 41
r 0.663586 0 1 cbr 210 ------- 0 0.0 3.0 43 43
+ 0.663586 1 2 cbr 210 ------- 0 0.0 3.0 43 43
- 0.663586 1 2 cbr 210 ------- 0 0.0 3.0 43 43
r 0.663782 2 3 cbr 210 ------- 0 0.0 3.0 41 41
+ 0.665 0 1 cbr 210 ------- 0 0.0 3.0 44 44
- 0.665 0 1 cbr 210 ------- 0 0.0 3.0 44 44
r 0.665196 1 2 cbr 210 ------- 0 0.0 3.0 42 42
+ 0.665196 2 3 cbr 210 ------- 0 0.0 3.0 42 42
- 0.665196 2 3 cbr 210 ------- 0 0.0 3.0 42 42
r 0.667336 0 1 cbr 210 ------- 0 0.0 3.0 44 44
+ 0.667336 1 2 cbr 210 ------- 0 0.0 3.0 44 44
- 0.667336 1 2 cbr 210 ------- 0 0.0 3.0 44 44
r 0.667532 2 3 cbr 210 ------- 0 0.0 3.0 42 42
+ 0.66875 0 1 cbr 210 ------- 0 0.0 3.0 45 45
- 0.66875 0 1 cbr 210 ------- 0 0.0 3.0 45 45
r 0.668946 1 2 cbr 210 ------- 0 0.0 3.0 43 43
+ 0.668946 2 3 cbr 210 ------- 0 0.0 3.0 43 43
- 0.668946 2 3 cbr 210 ------- 0 0.0 3.0 43 43
r 0.671086 0 1 cbr 210 ------- 0 0.0 3.0 45 45
+ 0.671086 1 2 cbr 210 ------- 0 0.0 3.0 45 45
- 0.671086 1 2 cbr 210 ------- 0 0.0 3.0 45 45
r 0.671282 2 3 cbr 210 ------- 0 0.0 3.0 43 43
+ 0.6725 0 1 cbr 210 ------- 0 0.0 3.0 46 46
- 0.6725 0 1 cbr 210 ------- 0 0.0 3.0 46 46
r 0.672696 1 2 cbr 210 ------- 0 0.0 3.0 44 44
+ 0.672696 2 3 cbr 210 ------- 0 0.0 3.0 44 44
- 0.672696 2 3 cbr 210 ------- 0 0.0 3.0 44 44
r 0.674836 0 1 cbr 210 ------- 0 0.0 3.0 46 46
+ 0.674836 1 2 cbr 210 ------- 0 0.0 3.0 46 46
- 0.674836 1 2 cbr 210 ------- 0 0.0 3.0 46 46
r 0.675032 2 3 cbr 210 ------- 0 0.0 3.0 44 44
+ 0.67625 0 1 cbr 210 ------- 0 0.0 3.0 47 47
- 0.67625 0 1 cbr 210 ------- 0 0.0 3.0 47 47
r 0.676446 1 2 cbr 210 ------- 0 0.0 3.0 45 45
+ 0.676446 2 3 cbr 210 ------- 0 0.0 3.0 45 45
- 0.676446 2 3 cbr 210 ------- 0 0.0 3.0 45 45
r 0.678586 0 1 cbr 210 ------- 0 0.0 3.0 47 47
+ 0.678586 1 2 cbr 210 ------- 0 0.0 3.0 47 47
- 0.678586 1 2 cbr 210 ------- 0 0.0 3.0 47 47
r 0.678782 2 3 cbr 210 ------- 0 0.0 3.0 45 45
+ 0.68 0 1 cbr 210 ------- 0 0.0 3.0 48 48
- 0.68 0 1 cbr 210 ------- 0 0.0 3.0 48 48
r 0.680196 1 2 cbr 210 ------- 0 0.0 3.0 46 46
+ 0.680196 2 3 cbr 210 ------- 0 0.0 3.0 46 46
- 0.680196 2 3 cbr 210 ------- 0 0.0 3.0 46 46
r 0.682336 0 1 cbr 210 ------- 0 0.0 3.0 48 48
+ 0.682336 1 2 cbr 210 ------- 0 0.0 3.0 48 48
- 0.682336 1 2 cbr 210 ------- 0 0.0 3.0 48 48
r 0.682532 2 3 cbr 210 ------- 0 0.0 3.0 46 46
+ 0.68375 0 1 cbr 210 ------- 0 0.0 3.0 49 49
- 0.68375 0 1 cbr 210 ------- 0 0.0 3.0 49 49
r 0.683946 1 2 cbr 210 ------- 0 0.0 3.0 47 47
+ 0.683946 2 3 cbr 210 ------- 0 0.0 3.0 47 47
- 0.683946 2 3 cbr 210 ------- 0 0.0 3.0 47 47
r 0.686086 0 1 cbr 210 ------- 0 0.0 3.0 49 49
+ 0.686086 1 2 cbr 210 ------- 0 0.0 3.0 49 49
- 0.686086 1 2 cbr 210 ------- 0 0.0 3.0 49 49
r 0.686282 2 3 cbr 210 ------- 0 0.0 3.0 47 47
+ 0.6875 0 1 cbr 210 ------- 0 0.0 3.0 50 50
- 0.6875 0 1 cbr 210 ------- 0 0.0 3.0 50 50
r 0.687696 1 2 cbr 210 ------- 0 0.0 3.0 48 48
+ 0.687696 2 3 cbr 210 ------- 0 0.0 3.0 48 48
- 0.687696 2 3 cbr 210 ------- 0 0.0 3.0 48 48
r 0.689836 0 1 cbr 210 ------- 0 0.0 3.0 50 50
+ 0.689836 1 2 cbr 210 ------- 0 0.0 3.0 50 50
- 0.689836 1 2 cbr 210 ------- 0 0.0 3.0 50 50
r 0.690032 2 3 cbr 210 ------- 0 0.0 3.0 48 48
+ 0.69125 0 1 cbr 210 ------- 0 0.0 3.0 51 51
- 0.69125 0 1 cbr 210 ------- 0 0.0 3.0 51 51
r 0.691446 1 2 cbr 210 ------- 0 0.0 3.0 49 49
+ 0.691446 2 3 cbr 210 ------- 0 0.0 3.0 49 49
- 0.691446 2 3 cbr 210 ------- 0 0.0 3.0 49 49
r 0.693586 0 1 cbr 210 ------- 0 0.0 3.0 51 51
+ 0.693586 1 2 cbr 210 ------- 0 0.0 3.0 51 51
- 0.693586 1 2 cbr 210 ------- 0 0.0 3.0 51 51
r 0.693782 2 3 cbr 210 ------- 0 0.0 3.0 49 49
+ 0.695 0 1 cbr 210 ------- 0 0.0 3.0 52 52
- 0.695 0 1 cbr 210 ------- 0 0.0 3.0 52 52
r 0.695196 1 2 cbr 210 ------- 0 0.0 3.0 50 50
+ 0.695196 2 3 cbr 210 ------- 0 0.0 3.0 50 50
- 0.695196 2 3 cbr 210 ------- 0 0.0 3.0 50 50
r 0.697336 0 1 cbr 210 ------- 0 0.0 3.0 52 52
+ 0.697336 1 2 cbr 210 ------- 0 0.0 3.0 52 52
- 0.697336 1 2 cbr 210 ------- 0 0.0 3.0 52 52
r 0.697532 2 3 cbr 210 ------- 0 0.0 3.0 50 50
+ 0.69875 0 1 cbr 210 ------- 0 0.0 3.0 53 53
- 0.69875 0 1 cbr 210 ------- 0 0.0 3.0 53 53
r 0.698946 1 2 cbr 210 ------- 0 0.0 3.0 51 51
+ 0.698946 2 3 cbr 210 ------- 0 0.0 3.0 51 51
- 0.698946 2 3 cbr 210 ------- 0 0.0 3.0 51 51
r 0.701086 0 1 cbr 210 ------- 0 0.0 3.0 53 53
+ 0.701086 1 2 cbr 210 ------- 0 0.0 3.0 53 53
- 0.701086 1 2 cbr 210 ------- 0 0.0 3.0 53 53
r 0.701282 2 3 cbr 210 ------- 0 0.0 3.0 51 51
+ 0.7025 0 1 cbr 210 ------- 0 0.0 3.0 54 54
- 0.7025 0 1 cbr 210 ------- 0 0.0 3.0 54 54
r 0.702696 1 2 cbr 210 ------- 0 0.0 3.0 52 52
+ 0.702696 2 3 cbr 210 ------- 0 0.0 3.0 52 52
- 0.702696 2 3 cbr 210 ------- 0 0.0 3.0 52 52
r 0.704836 0 1 cbr 210 ------- 0 0.0 3.0 54 54
+ 0.704836 1 2 cbr 210 ------- 0 0.0 3.0 54 54
- 0.704836 1 2 cbr 210 ------- 0 0.0 3.0 54 54
r 0.705032 2 3 cbr 210 ------- 0 0.0 3.0 52 52
+ 0.70625 0 1 cbr 210 ------- 0 0.0 3.0 55 55
- 0.70625 0 1 cbr 210 ------- 0 0.0 3.0 55 55
r 0.706446 1 2 cbr 210 ------- 0 0.0 3.0 53 53
+ 0.706446 2 3 cbr 210 ------- 0 0.0 3.0 53 53
- 0.706446 2 3 cbr 210 ------- 0 0.0 3.0 53 53
r 0.708586 0 1 cbr 210 ------- 0 0.0 3.0 55 55
+ 0.708586 1 2 cbr 210 ------- 0 0.0 3.0 55 55
- 0.708586 1 2 cbr 210 ------- 0 0.0 3.0 55 55
r 0.708782 2 3 cbr 210 ------- 0 0.0 3.0 53 53
+ 0.71 0 1 cbr 210 ------- 0 0.0 3.0 56 56
- 0.71 0 1 cbr 210 ------- 0 0.0 3.0 56 56
r 0.710196 1 2 cbr 210 ------- 0 0.0 3.0 54 54
+ 0.710196 2 3 cbr 210 ------- 0 0.0 3.0 54 54
- 0.710196 2 3 cbr 210 ------- 0 0.0 3.0 54 54
r 0.712336 0 1 cbr 210 ------- 0 0.0 3.0 56 56
+ 0.712336 1 2 cbr 210 ------- 0 0.0 3.0 56 56
- 0.712336 1 2 cbr 210 ------- 0 0.0 3.0 56 56
r 0.712532 2 3 cbr 210 ------- 0 0.0 3.0 54 54
+ 0.71375 0 1 cbr 210 ------- 0 0.0 3.0 57 57
- 0.71375 0 1 cbr 210 ------- 0 0.0 3.0 57 57
r 0.713946 1 2 cbr 210 ------- 0 0.0 3.0 55 55
+ 0.713946 2 3 cbr 210 ------- 0 0.0 3.0 55 55
- 0.713946 2 3 cbr 210 ------- 0 0.0 3.0 55 55
r 0.716086 0 1 cbr 210 ------- 0 0.0 3.0 57 57
+ 0.716086 1 2 cbr 210 ------- 0 0.0 3.0 57 57
- 0.716086 1 2 cbr 210 ------- 0 0.0 3.0 57 57
r 0.716282 2 3 cbr 210 ------- 0 0.0 3.0 55 55
+ 0.7175 0 1 cbr 210 ------- 0 0.0 3.0 58 58
- 0.7175 0 1 cbr 210 ------- 0 0.0 3.0 58 58
r 0.717696 1 2 cbr 210 ------- 0 0.0 3.0 56 56
+ 0.717696 2 3 cbr 210 ------- 0 0.0 3.0 56 56
- 0.717696 2 3 cbr 210 ------- 0 0.0 3.0 56 56
r 0.719836 0 1 cbr 210 ------- 0 0.0 3.0 58 58
+ 0.719836 1 2 cbr 210 ------- 0 0.0 3.0 58 58
- 0.719836 1 2 cbr 210 ------- 0 0.0 3.0 58 58
r 0.720032 2 3 cbr 210 ------- 0 0.0 3.0 56 56
+ 0.72125 0 1 cbr 210 ------- 0 0.0 3.0 59 59
- 0.72125 0 1 cbr 210 ------- 0 0.0 3.0 59 59
r 0.721446 1 2 cbr 210 ------- 0 0.0 3.0 57 57
+ 0.721446 2 3 cbr 210 ------- 0 0.0 3.0 57 57
- 0.721446 2 3 cbr 210 ------- 0 0.0 3.0 57 57
r 0.723586 0 1 cbr 210 ------- 0 0.0 3.0 59 59
+ 0.723586 1 2 cbr 210 ------- 0 0.0 3.0 59 59
- 0.723586 1 2 cbr 210 ------- 0 0.0 3.0 59 59
r 0.723782 2 3 cbr 210 ------- 0 0.0 3.0 57 57
+ 0.725 0 1 cbr 210 ------- 0 0.0 3.0 60 60
- 0.725 0 1 cbr 210 ------- 0 0.0 3.0 60 60
r 0.725196 1 2 cbr 210 ------- 0 0.0 3.0 58 58
+ 0.725196 2 3 cbr 210 ------- 0 0.0 3.0 58 58
- 0.725196 2 3 cbr 210 ------- 0 0.0 3.0 58 58
r 0.727336 0 1 cbr 210 ------- 0 0.0 3.0 60 60
+ 0.727336 1 2 cbr 210 ------- 0 0.0 3.0 60 60
- 0.727336 1 2 cbr 210 ------- 0 0.0 3.0 60 60
r 0.727532 2 3 cbr 210 ------- 0 0.0 3.0 58 58
+ 0.72875 0 1 cbr 210 ------- 0 0.0 3.0 61 61
- 0.72875 0 1 cbr 210 ------- 0 0.0 3.0 61 61
r 0.728946 1 2 cbr 210 ------- 0 0.0 3.0 59 59
+ 0.728946 2 3 cbr 210 ------- 0 0.0 3.0 59 59
- 0.728946 2 3 cbr 210 ------- 0 0.0 3.0 59 59
r 0.731086 0 1 cbr 210 ------- 0 0.0 3.0 61 61
+ 0.731086 1 2 cbr 210 ------- 0 0.0 3.0 61 61
- 0.731086 1 2 cbr 210 ------- 0 0.0 3.0 61 61
r 0.731282 2 3 cbr 210 ------- 0 0.0 3.0 59 59
+ 0.7325 0 1 cbr 210 ------- 0 0.0 3.0 62 62
- 0.7325 0 1 cbr 210 ------- 0 0.0 3.0 62 62
r 0.732696 1 2 cbr 210 ------- 0 0.0 3.0 60 60
+ 0.732696 2 3 cbr 210 ------- 0 0.0 3.0 60 60
- 0.732696 2 3 cbr 210 ------- 0 0.0 3.0 60 60
r 0.734836 0 1 cbr 210 ------- 0 0.0 3.0 62 62
+ 0.734836 1 2 cbr 210 ------- 0 0.0 3.0 62 62
- 0.734836 1 2 cbr 210 ------- 0 0.0 3.0 62 62
r 0.735032 2 3 cbr 210 ------- 0 0.0 3.0 60 60
+ 0.73625 0 1 cbr 210 ------- 0 0.0 3.0 63 63
- 0.73625 0 1 cbr 210 ------- 0 0.0 3.0 63 63
r 0.736446 1 2 cbr 210 ------- 0 0.0 3.0 61 61
+ 0.736446 2 3 cbr 210 ------- 0 0.0 3.0 61 61
- 0.736446 2 3 cbr 210 ------- 0 0.0 3.0 61 61
r 0.738586 0 1 cbr 210 ------- 0 0.0 3.0 63 63
+ 0.738586 1 2 cbr 210 ------- 0 0.0 3.0 63 63
- 0.738586 1 2 cbr 210 ------- 0 0.0 3.0 63 63
r 0.738782 2 3 cbr 210 ------- 0 0.0 3.0 61 61
+ 0.74 0 1 cbr 210 ------- 0 0.0 3.0 64 64
- 0.74 0 1 cbr 210 ------- 0 0.0 3.0 64 64
r 0.740196 1 2 cbr 210 ------- 0 0.0 3.0 62 62
+ 0.740196 2 3 cbr 210 ------- 0 0.0 3.0 62 62
- 0.740196 2 3 cbr 210 ------- 0 0.0 3.0 62 62
r 0.742336 0 1 cbr 210 ------- 0 0.0 3.0 64 64
+ 0.742336 1 2 cbr 210 ------- 0 0.0 3.0 64 64
- 0.742336 1 2 cbr 210 ------- 0 0.0 3.0 64 64
r 0.742532 2 3 cbr 210 ------- 0 0.0 3.0 62 62
+ 0.74375 0 1 cbr 210 ------- 0 0.0 3.0 65 65
- 0.74375 0 1 cbr 210 ------- 0 0.0 3.0 65 65
r 0.743946 1 2 cbr 210 ------- 0 0.0 3.0 63 63
+ 0.743946 2 3 cbr 210 ------- 0 0.0 3.0 63 63
- 0.743946 2 3 cbr 210 ------- 0 0.0 3.0 63 63
r 0.746086 0 1 cbr 210 ------- 0 0.0 3.0 65 65
+ 0.746086 1 2 cbr 210 ------- 0 0.0 3.0 65 65
- 0.746086 1 2 cbr 210 ------- 0 0.0 3.0 65 65
r 0.746282 2 3 cbr 210 ------- 0 0.0 3.0 63 63
+ 0.7475 0 1 cbr 210 ------- 0 0.0 3.0 66 66
- 0.7475 0 1 cbr 210 ------- 0 0.0 3.0 66 66
r 0.747696 1 2 cbr 210 ------- 0 0.0 3.0 64 64
+ 0.747696 2 3 cbr 210 ------- 0 0.0 3.0 64 64
- 0.747696 2 3 cbr 210 ------- 0 0.0 3.0 64 64
r 0.749836 0 1 cbr 210 ------- 0 0.0 3.0 66 66
+ 0.749836 1 2 cbr 210 ------- 0 0.0 3.0 66 66
- 0.749836 1 2 cbr 210 ------- 0 0.0 3.0 66 66
r 0.750032 2 3 cbr 210 ------- 0 0.0 3.0 64 64
+ 0.75125 0 1 cbr 210 ------- 0 0.0 3.0 67 67
- 0.75125 0 1 cbr 210 ------- 0 0.0 3.0 67 67
r 0.751446 1 2 cbr 210 ------- 0 0.0 3.0 65 65
+ 0.751446 2 3 cbr 210 ------- 0 0.0 3.0 65 65
- 0.751446 2 3 cbr 210 ------- 0 0.0 3.0 65 65
r 0.753586 0 1 cbr 210 ------- 0 0.0 3.0 67 67
+ 0.753586 1 2 cbr 210 ------- 0 0.0 3.0 67 67
- 0.753586 1 2 cbr 210 ------- 0 0.0 3.0 67 67
r 0.753782 2 3 cbr 210 ------- 0 0.0 3.0 65 65
+ 0.755 0 1 cbr 210 ------- 0 0.0 3.0 68 68
- 0.755 0 1 cbr 210 ------- 0 0.0 3.0 68 68
r 0.755196 1 2 cbr 210 ------- 0 0.0 3.0 66 66
+ 0.755196 2 3 cbr 210 ------- 0 0.0 3.0 66 66
- 0.755196 2 3 cbr 210 ------- 0 0.0 3.0 66 66
r 0.757336 0 1 cbr 210 ------- 0 0.0 3.0 68 68
+ 0.757336 1 2 cbr 210 ------- 0 0.0 3.0 68 68
- 0.757336 1 2 cbr 210 ------- 0 0.0 3.0 68 68
r 0.757532 2 3 cbr 210 ------- 0 0.0 3.0 66 66
+ 0.75875 0 1 cbr 210 ------- 0 0.0 3.0 69 69
- 0.75875 0 1 cbr 210 ------- 0 0.0 3.0 69 69
r 0.758946 1 2 cbr 210 ------- 0 0.0 3.0 67 67
+ 0.758946 2 3 cbr 210 ------- 0 0.0 3.0 67 67
- 0.758946 2 3 cbr 210 ------- 0 0.0 3.0 67 67
r 0.761086 0 1 cbr 210 ------- 0 0.0 3.0 69 69
+ 0.761086 1 2 cbr 210 ------- 0 0.0 3.0 69 69
- 0.761086 1 2 cbr 210 ------- 0 0.0 3.0 69 69
r 0.761282 2 3 cbr 210 ------- 0 0.0 3.0 67 67
+ 0.7625 0 1 cbr 210 ------- 0 0.0 3.0 70 70
- 0.7625 0 1 cbr 210 ------- 0 0.0 3.0 70 70
r 0.762696 1 2 cbr 210 ------- 0 0.0 3.0 68 68
+ 0.762696 2 3 cbr 210 ------- 0 0.0 3.0 68 68
- 0.762696 2 3 cbr 210 ------- 0 0.0 3.0 68 68
r 0.764836 0 1 cbr 210 ------- 0 0.0 3.0 70 70
+ 0.764836 1 2 cbr 210 ------- 0 0.0 3.0 70 70
- 0.764836 1 2 cbr 210 ------- 0 0.0 3.0 70 70
r 0.765032 2 3 cbr 210 ------- 0 0.0 3.0 68 68
+ 0.76625 0 1 cbr 210 ------- 0 0.0 3.0 71 71
- 0.76625 0 1 cbr 210 ------- 0 0.0 3.0 71 71
r 0.766446 1 2 cbr 210 ------- 0 0.0 3.0 69 69
+ 0.766446 2 3 cbr 210 ------- 0 0.0 3.0 69 69
- 0.766446 2 3 cbr 210 ------- 0 0.0 3.0 69 69
r 0.768586 0 1 cbr 210 ------- 0 0.0 3.0 71 71
+ 0.768586 1 2 cbr 210 ------- 0 0.0 3.0 71 71
- 0.768586 1 2 cbr 210 ------- 0 0.0 3.0 71 71
r 0.768782 2 3 cbr 210 ------- 0 0.0 3.0 69 69
+ 0.77 0 1 cbr 210 ------- 0 0.0 3.0 72 72
- 0.77 0 1 cbr 210 ------- 0 0.0 3.0 72 72
r 0.770196 1 2 cbr 210 ------- 0 0.0 3.0 70 70
+ 0.770196 2 3 cbr 210 ------- 0 0.0 3.0 70 70
- 0.770196 2 3 cbr 210 ------- 0 0.0 3.0 70 70
r 0.772336 0 1 cbr 210 ------- 0 0.0 3.0 72 72
+ 0.772336 1 2 cbr 210 ------- 0 0.0 3.0 72 72
- 0.772336 1 2 cbr 210 ------- 0 0.0 3.0 72 72