V -t * -v 1.0a5 -a 0
A -t * -n 1 -p 0 -o 0x7fffffff -c 30 -a 1
A -t * -h 1 -m 1073741823 -s 0
c -t * -i 0 -n blue
c -t * -i 1 -n red
c -t * -i 2 -n green
c -t * -i 3 -n black
n -t * -a 4 -s 4 -S UP -v circle -c black -i black
n -t * -a 0 -s 0 -S UP -v circle -c black -i black
n -t * -a 5 -s 5 -S UP -v circle -c black -i black
n -t * -a 1 -s 1 -S UP -v circle -c black -i black
n -t * -a 6 -s 6 -S UP -v circle -c black -i black
n -t * -a 2 -s 2 -S UP -v circle -c black -i black
n -t * -a 7 -s 7 -S UP -v circle -c black -i black
n -t * -a 3 -s 3 -S UP -v circle -c black -i black
l -t * -s 0 -d 1 -S UP -r 5000000 -D 0.002 -c black -o right
l -t * -s 1 -d 2 -S UP -r 500000 -D 0.002 -c black -o right
l -t * -s 2 -d 3 -S UP -r 5000000 -D 0.002 -c black -o right
l -t * -s 1 -d 4 -S UP -r 1500000 -D 0.01 -c black -o down
l -t * -s 2 -d 5 -S UP -r 1500000 -D 0.01 -c black -o down
l -t * -s 1 -d 6 -S UP -r 1500000 -D 0.01 -c black -o up
l -t * -s 2 -d 7 -S UP -r 1500000 -D 0.01 -c black -o up
q -t * -s 1 -d 2 -a 0.5
q -t * -s 2 -d 1 -a 0.5
q -t * -s 2 -d 3 -a 0.5
q -t * -s 3 -d 2 -a 0.5
+ -t 0.5 -s 0 -d 1 -p cbr -e 210 -c 0 -i 0 -a 0 -x {0.0 3.0 0 ------- null}
- -t 0.5 -s 0 -d 1 -p cbr -e 210 -c 0 -i 0 -a 0 -x {0.0 3.0 0 ------- null}
h -t 0.5 -s 0 -d 1 -p cbr -e 210 -c 0 -i 0 -a 0 -x {0.0 3.0 -1 ------- null}
r -t 0.502336 -s 0 -d 1 -p cbr -e 210 -c 0 -i 0 -a 0 -x {0.0 3.0 0 ------- null}
+ -t 0.502336 -s 1 -d 2 -p cbr -e 210 -c 0 -i 0 -a 0 -x {0.0 3.0 0 ------- null}
- -t 0.502336 -s 1 -d 2 -p cbr -e 210 -c 0 -i 0 -a 0 -x {0.0 3.0 0 ------- null}
h -t 0.502336 -s 1 -d 2 -p cbr -e 210 -c 0 -i 0 -a 0 -x {0.0 3.0 -1 ------- null}
+ -t 0.50375 -s 0 -d 1 -p cbr -e 210 -c 0 -i 1 -a 0 -x {0.0 3.0 1 ------- null}
- -t 0.50375 -s 0 -d 1 -p cbr -e 210 -c 0 -i 1 -a 0 -x {0.0 3.0 1 ------- null}
h -t 0.50375 -s 0 -d 1 -p cbr -e 210 -c 0 -i 1 -a 0 -x {0.0 3.0 -1 ------- null}
r -t 0.506086 -s 0 -d 1 -p cbr -e 210 -c 0 -i 1 -a 0 -x {0.0 3.0 1 ------- null}
+ -t 0.506086 -s 1 -d 2 -p cbr -e 210 -c 0 -i 1 -a 0 -x {0.0 3.0 1 ------- null}
- -t 0.506086 -s 1 -d 2 -p cbr -e 210 -c 0 -i 1 -a 0 -x {0.0 3.0 1 ------- null}
h -t 0.506086 -s 1 -d 2 -p cbr -e 210 -c 0 -i 1 -a 0 -x {0.0 3.0 -1 ------- null}
+ -t 0.5075 -s 0 -d 1 -p cbr -e 210 -c 0 -i 2 -a 0 -x {0.0 3.0 2 ------- null}
- -t 0.5075 -s 0 -d 1 -p cbr -e 210 -c 0 -i 2 -a 0 -x {0.0 3.0 2 ------- null}
h -t 0.5075 -s 0 -d 1 -p cbr -e 210 -c 0 -i 2 -a 0 -x {0.0 3.0 -1 ------- null}
r -t 0.507696 -s 1 -d 2 -p cbr -e 210 -c 0 -i 0 -a 0 -x {0.0 3.0 0 ------- null}
+ -t 0.507696 -s 2 -d 3 -p cbr -e 210 -c 0 -i 0 -a 0 -x {0.0 3.0 0 ------- null}
- -t 0.507696 -s 2 -d 3 -p cbr -e 210 -c 0 -i 0 -a 0 -x {0.0 3.0 0 ------- null}
h -t 0.507696 -s 2 -d 3 -p cbr -e 210 -c 0 -i 0 -a 0 -x {0.0 3.0 -1 ------- null}
r -t 0.509836 -s 0 -d 1 -p cbr -e 210 -c 0 -i 2 -a 0 -x {0.0 3.0 2 ------- null}
+ -t 0.509836 -s 1 -d 2 -p cbr -e 210 -c 0 -i 2 -a 0 -x {0.0 3.0 2 ------- null}
- -t 0.509836 -s 1 -d 2 -p cbr -e 210 -c 0 -i 2 -a 0 -x {0.0 3.0 2 ------- null}
h -t 0.509836 -s 1 -d 2 -p cbr -e 210 -c 0 -i 2 -a 0 -x {0.0 3.0 -1 ------- null}
r -t 0.510032 -s 2 -d 3 -p cbr -e 210 -c 0 -i 0 -a 0 -x {0.0 3.0 0 ------- null}
+ -t 0.51125 -s 0 -d 1 -p cbr -e 210 -c 0 -i 3 -a 0 -x {0.0 3.0 3 ------- null}
- -t 0.51125 -s 0 -d 1 -p cbr -e 210 -c 0 -i 3 -a 0 -x {0.0 3.0 3 ------- null}
h -t 0.51125 -s 0 -d 1 -p cbr -e 210 -c 0 -i 3 -a 0 -x {0.0 3.0 -1 ------- null}
r -t 0.511446 -s 1 -d 2 -p cbr -e 210 -c 0 -i 1 -a 0 -x {0.0 3.0 1 ------- null}
+ -t 0.511446 -s 2 -d 3 -p cbr -e 210 -c 0 -i 1 -a 0 -x {0.0 3.0 1 ------- null}
- -t 0.511446 -s 2 -d 3 -p cbr -e 210 -c 0 -i 1 -a 0 -x {0.0 3.0 1 ------- null}
h -t 0.511446 -s 2 -d 3 -p cbr -e 210 -c 0 -i 1 -a 0 -x {0.0 3.0 -1 ------- null}
r -t 0.513586 -s 0 -d 1 -p cbr -e 210 -c 0 -i 3 -a 0 -x {0.0 3.0 3 ------- null}
+ -t 0.513586 -s 1 -d 2 -p cbr -e 210 -c 0 -i 3 -a 0 -x {0.0 3.0 3 ------- null}
- -t 0.513586 -s 1 -d 2 -p cbr -e 210 -c 0 -i 3 -a 0 -x {0.0 3.0 3 ------- null}
h -t 0.513586 -s 1 -d 2 -p cbr -e 210 -c 0 -i 3 -a 0 -x {0.0 3.0 -1 ------- null}
r -t 0.513782 -s 2 -d 3 -p cbr -e 210 -c 0 -i 1 -a 0 -x {0.0 3.0 1 ------- null}
+ -t 0.515 -s 0 -d 1 -p cbr -e 210 -c 0 -i 4 -a 0 -x {0.0 3.0 4 ------- null}
- -t 0.515 -s 0 -d 1 -p cbr -e 210 -c 0 -i 4 -a 0 -x {0.0 3.0 4 ------- null}
h -t 0.515 -s 0 -d 1 -p cbr -e 210 -c 0 -i 4 -a 0 -x {0.0 3.0 -1 ------- null}
r -t 0.515196 -s 1 -d 2 -p cbr -e 210 -c 0 -i 2 -a 0 -x {0.0 3.0 2 ------- null}
+ -t 0.515196 -s 2 -d 3 -p cbr -e 210 -c 0 -i 2 -a 0 -x {0.0 3.0 2 ------- null}
- -t 0.515196 -s 2 -d 3 -p cbr -e 210 -c 0 -i 2 -a 0 -x {0.0 3.0 2 ------- null}
h -t 0.515196 -s 2 -d 3 -p cbr -e 210 -c 0 -i 2 -a 0 -x {0.0 3.0 -1 ------- null}
r -t 0.517336 -s 0 -d 1 -p cbr -e 210 -c 0 -i 4 -a 0 -x {0.0 3.0 4 ------- null}
+ -t 0.517336 -s 1 -d 2 -p cbr -e 210 -c 0 -i 4 -a 0 -x {0.0 3.0 4 ------- null}
- -t 0.517336 -s 1 -d 2 -p cbr -e 210 -c 0 -i 4 -a 0 -x {0.0 3.0 4 ------- null}
h -t 0.517336 -s 1 -d 2 -p cbr -e 210 -c 0 -i 4 -a 0 -x {0.0 3.0 -1 ------- null}
r -t 0.517532 -s 2 -d 3 -p cbr -e 210 -c 0 -i 2 -a 0 -x {0.0 3.0 2 ------- null}
+ -t 0.51875 -s 0 -d 1 -p cbr -e 210 -c 0 -i 5 -a 0 -x {0.0 3.0 5 ------- null}
- -t 0.51875 -s 0 -d 1 -p cbr -e 210 -c 0 -i 5 -a 0 -x {0.0 3.0 5 ------- null}
h -t 0.51875 -s 0 -d 1 -p cbr -e 210 -c 0 -i 5 -a 0 -x {0.0 3.0 -1 ------- null}
r -t 0.518946 -s 1 -d 2 -p cbr -e 210 -c 0 -i 3 -a 0 -x {0.0 3.0 3 ------- null}
+ -t 0.518946 -s 2 -d 3 -p cbr -e 210 -c 0 -i 3 -a 0 -x {0.0 3.0 3 ------- null}
- -t 0.518946 -s 2 -d 3 -p cbr -e 210 -c 0 -i 3 -a 0 -x {0.0 3.0 3 ------- null}
h -t 0.518946 -s 2 -d 3 -p cbr -e 210 -c 0 -i 3 -a 0 -x {0.0 3.0 -1 ------- null}
r -t 0.521086 -s 0 -d 1 -p cbr -e 210 -c 0 -i 5 -a 0 -x {0.0 3.0 5 ------- null}
+ -t 0.521086 -s 1 -d 2 -p cbr -e 210 -c 0 -i 5 -a 0 -x {0.0 3.0 5 ------- null}
- -t 0.521086 -s 1 -d 2 -p cbr -e 210 -c 0 -i 5 -a 0 -x {0.0 3.0 5 ------- null}
h -t 0.521086 -s 1 -d 2 -p cbr -e 210 -c 0 -i 5 -a 0 -x {0.0 3.0 -1 ------- null}
r -t 0.521282 -s 2 -d 3 -p cbr -e 210 -c 0 -i 3 -a 0 -x {0.0 3.0 3 ------- null}
+ -t 0.5225 -s 0 -d 1 -p cbr -e 210 -c 0 -i 6 -a 0 -x {0.0 3.0 6 ------- null}
- -t 0.5225 -s 0 -d 1 -p cbr -e 210 -c 0 -i 6 -a 0 -x {0.0 3.0 6 ------- null}
h -t 0.5225 -s 0 -d 1 -p cbr -e 210 -c 0 -i 6 -a 0 -x {0.0 3.0 -1 ------- null}
r -t 0.522696 -s 1 -d 2 -p cbr -e 210 -c 0 -i 4 -a 0 -x {0.0 3.0 4 ------- null}
+ -t 0.522696 -s 2 -d 3 -p cbr -e 210 -c 0 -i 4 -a 0 -x {0.0 3.0 4 ------- null}
- -t 0.522696 -s 2 -d 3 -p cbr -e 210 -c 0 -i 4 -a 0 -x {0.0 3.0 4 ------- null}
h -t 0.522696 -s 2 -d 3 -p cbr -e 210 -c 0 -i 4 -a 0 -x {0.0 3.0 -1 ------- null}
r -t 0.524836 -s 0 -d 1 -p cbr -e 210 -c 0 -i 6 -a 0 -x {0.0 3.0 6 ------- null}
+ -t 0.524836 -s 1 -d 2 -p cbr -e 210 -c 0 -i 6 -a 0 -x {0.0 3.0 6 ------- null}
- -t 0.524836 -s 1 -d 2 -p cbr -e 210 -c 0 -i 6 -a 0 -x {0.0 3.0 6 ------- null}
h -t 0.524836 -s 1 -d 2 -p cbr -e 210 -c 0 -i 6 -a 0 -x {0.0 3.0 -1 ------- null}
r -t 0.525032 -s 2 -d 3 -p cbr -e 210 -c 0 -i 4 -a 0 -x {0.0 3.0 4 ------- null}
+ -t 0.52625 -s 0 -d 1 -p cbr -e 210 -c 0 -i 7 -a 0 -x {0.0 3.0 7 ------- null}
- -t 0.52625 -s 0 -d 1 -p cbr -e 210 -c 0 -i 7 -a 0 -x {0.0 3.0 7 ------- null}
h -t 0.52625 -s 0 -d 1 -p cbr -e 210 -c 0 -i 7 -a 0 -x {0.0 3.0 -1 ------- null}
r -t 0.526446 -s 1 -d 2 -p cbr -e 210 -c 0 -i 5 -a 0 -x {0.0 3.0 5 ------- null}
+ -t 0.526446 -s 2 -d 3 -p cbr -e 210 -c 0 -i 5 -a 0 -x {0.0 3.0 5 ------- null}
- -t 0.526446 -s 2 -d 3 -p cbr -e 210 -c 0 -i 5 -a 0 -x {0.0 3.0 5 ------- null}
h -t 0.526446 -s 2 -d 3 -p cbr -e 210 -c 0 -i 5 -a 0 -x {0.0 3.0 -1 ------- null}
r -t 0.528586 -s 0 -d 1 -p cbr -e 210 -c 0 -i 7 -a 0 -x {0.0 3.0 7 ------- null}
+ -t 0.528586 -s 1 -d 2 -p cbr -e 210 -c 0 -i 7 -a 0 -x {0.0 3.0 7 ------- null}
- -t 0.528586 -s 1 -d 2 -p cbr -e 210 -c 0 -i 7 -a 0 -x {0.0 3.0 7 ------- null}
h -t 0.528586 -s 1 -d 2 -p cbr -e 210 -c 0 -i 7 -a 0 -x {0.0 3.0 -1 ------- null}
r -t 0.528782 -s 2 -d 3 -p cbr -e 210 -c 0 -i 5 -a 0 -x {0.0 3.0 5 ------- null}
+ -t 0.53 -s 0 -d 1 -p cbr -e 210 -c 0 -i 8 -a 0 -x {0.0 3.0 8 ------- null}
- -t 0.53 -s 0 -d 1 -p cbr -e 210 -c 0 -i 8 -a 0 -x {0.0 3.0 8 ------- null}
h -t 0.53 -s 0 -d 1 -p cbr -e 210 -c 0 -i 8 -a 0 -x {0.0 3.0 -1 ------- null}
r -t 0.530196 -s 1 -d 2 -p cbr -e 210 -c 0 -i 6 -a 0 -x {0.0 3.0 6 ------- null}
+ -t 0.530196 -s 2 -d 3 -p cbr -e 210 -c 0 -i 6 -a 0 -x {0.0 3.0 6 ------- null}
- -t 0.530196 -s 2 -d 3 -p cbr -e 210 -c 0 -i 6 -a 0 -x {0.0 3.0 6 ------- null}
h -t 0.530196 -s 2 -d 3 -p cbr -e 210 -c 0 -i 6 -a 0 -x {0.0 3.0 -1 ------- null}
r -t 0.532336 -s 0 -d 1 -p cbr -e 210 -c 0 -i 8 -a 0 -x {0.0 3.0 8 ------- null}
+ -t 0.532336 -s 1 -d 2 -p cbr -e 210 -c 0 -i 8 -a 0 -x {0.0 3.0 8 ------- null}
- -t 0.532336 -s 1 -d 2 -p cbr -e 210 -c 0 -i 8 -a 0 -x {0.0 3.0 8 ------- null}
h -t 0.532336 -s 1 -d 2 -p cbr -e 210 -c 0 -i 8 -a 0 -x {0.0 3.0 -1 ------- null}
r -t 0.532532 -s 2 -d 3 -p cbr -e 210 -c 0 -i 6 -a 0 -x {0.0 3.0 6 ------- null}
+ -t 0.53375 -s 0 -d 1 -p cbr -e 210 -c 0 -i 9 -a 0 -x {0.0 3.0 9 ------- null}
- -t 0.53375 -s 0 -d 1 -p cbr -e 210 -c 0 -i 9 -a 0 -x {0.0 3.0 9 ------- null}
h -t 0.53375 -s 0 -d 1 -p cbr -e 210 -c 0 -i 9 -a 0 -x {0.0 3.0 -1 ------- null}
r -t 0.533946 -s 1 -d 2 -p cbr -e 210 -c 0 -i 7 -a 0 -x {0.0 3.0 7 ------- null}
+ -t 0.533946 -s 2 -d 3 -p cbr -e 210 -c 0 -i 7 -a 0 -x {0.0 3.0 7 ------- null}
- -t 0.533946 -s 2 -d 3 -p cbr -e 210 -c 0 -i 7 -a 0 -x {0.0 3.0 7 ------- null}
h -t 0.533946 -s 2 -d 3 -p cbr -e 210 -c 0 -i 7 -a 0 -x {0.0 3.0 -1 ------- null}
r -t 0.536086 -s 0 -d 1 -p cbr -e 210 -c 0 -i 9 -a 0 -x {0.0 3.0 9 ------- null}
+ -t 0.536086 -s 1 -d 2 -p cbr -e 210 -c 0 -i 9 -a 0 -x {0.0 3.0 9 ------- null}
- -t 0.536086 -s 1 -d 2 -p cbr -e 210 -c 0 -i 9 -a 0 -x {0.0 3.0 9 ------- null}
h -t 0.536086 -s 1 -d 2 -p cbr -e 210 -c 0 -i 9 -a 0 -x {0.0 3.0 -1 ------- null}
r -t 0.536282 -s 2 -d 3 -p cbr -e 210 -c 0 -i 7 -a 0 -x {0.0 3.0 7 ------- null}
+ -t 0.5375 -s 0 -d 1 -p cbr -e 210 -c 0 -i 10 -a 0 -x {0.0 3.0 10 ------- null}
- -t 0.5375 -s 0 -d 1 -p cbr -e 210 -c 0 -i 10 -a 0 -x {0.0 3.0 10 ------- null}
h -t 0.5375 -s 0 -d 1 -p cbr -e 210 -c 0 -i 10 -a 0 -x {0.0 3.0 -1 ------- null}
r -t 0.537696 -s 1 -d 2 -p cbr -e 210 -c 0 -i 8 -a 0 -x {0.0 3.0 8 ------- null}
+ -t 0.537696 -s 2 -d 3 -p cbr -e 210 -c 0 -i 8 -a 0 -x {0.0 3.0 8 ------- null}
- -t 0.537696 -s 2 -d 3 -p cbr -e 210 -c 0 -i 8 -a 0 -x {0.0 3.0 8 ------- null}
h -t 0.537696 -s 2 -d 3 -p cbr -e 210 -c 0 -i 8 -a 0 -x {0.0 3.0 -1 ------- null}
r -t 0.539836 -s 0 -d 1 -p cbr -e 210 -c 0 -i 10 -a 0 -x {0.0 3.0 10 ------- null}
+ -t 0.539836 -s 1 -d 2 -p cbr -e 210 -c 0 -i 10 -a 0 -x {0.0 3.0 10 ------- null}
- -t 0.539836 -s 1 -d 2 -p cbr -e 210 -c 0 -i 10 -a 0 -x {0.0 3.0 10 ------- null}
h -t 0.539836 -s 1 -d 2 -p cbr -e 210 -c 0 -i 10 -a 0 -x {0.0 3.0 -1 ------- null}
r -t 0.540032 -s 2 -d 3 -p cbr -e 210 -c 0 -i 8 -a 0 -x {0.0 3.0 8 ------- null}
+ -t 0.54125 -s 0 -d 1 -p cbr -e 210 -c 0 -i 11 -a 0 -x {0.0 3.0 11 ------- null}
- -t 0.54125 -s 0 -d 1 -p cbr -e 210 -c 0 -i 11 -a 0 -x {0.0 3.0 11 ------- null}
h -t 0.54125 -s 0 -d 1 -p cbr -e 210 -c 0 -i 11 -a 0 -x {0.0 3.0 -1 ------- null}
r -t 0.541446 -s 1 -d 2 -p cbr -e 210 -c 0 -i 9 -a 0 -x {0.0 3.0 9 ------- null}
+ -t 0.541446 -s 2 -d 3 -p cbr -e 210 -c 0 -i 9 -a 0 -x {0.0 3.0 9 ------- null}
- -t 0.541446 -s 2 -d 3 -p cbr -e 210 -c 0 -i 9 -a 0 -x {0.0 3.0 9 ------- null}
h -t 0.541446 -s 2 -d 3 -p cbr -e 210 -c 0 -i 9 -a 0 -x {0.0 3.0 -1 ------- null}
r -t 0.543586 -s 0 -d 1 -p cbr -e 210 -c 0 -i 11 -a 0 -x {0.0 3.0 11 ------- null}
+ -t 0.543586 -s 1 -d 2 -p cbr -e 210 -c 0 -i 11 -a 0 -x {0.0 3.0 11 ------- null}
- -t 0.543586 -s 1 -d 2 -p cbr -e 210 -c 0 -i 11 -a 0 -x {0.0 3.0 11 ------- null}
h -t 0.543586 -s 1 -d 2 -p cbr -e 210 -c 0 -i 11 -a 0 -x {0.0 3.0 -1 ------- null}
r -t 0.543782 -s 2 -d 3 -p cbr -e 210 -c 0 -i 9 -a 0 -x {0.0 3.0 9 ------- null}
+ -t 0.545 -s 0 -d 1 -p cbr -e 210 -c 0 -i 12 -a 0 -x {0.0 3.0 12 ------- null}
- -t 0.545 -s 0 -d 1 -p cbr -e 210 -c 0 -i 12 -a 0 -x {0.0 3.0 12 ------- null}
h -t 0.545 -s 0 -d 1 -p cbr -e 210 -c 0 -i 12 -a 0 -x {0.0 3.0 -1 ------- null}
r -t 0.545196 -s 1 -d 2 -p cbr -e 210 -c 0 -i 10 -a 0 -x {0.0 3.0 10 ------- null}
+ -t 0.545196 -s 2 -d 3 -p cbr -e 210 -c 0 -i 10 -a 0 -x {0.0 3.0 10 ------- null}
- -t 0.545196 -s 2 -d 3 -p cbr -e 210 -c 0 -i 10 -a 0 -x {0.0 3.0 10 ------- null}
h -t 0.545196 -s 2 -d 3 -p cbr -e 210 -c 0 -i 10 -a 0 -x {0.0 3.0 -1 ------- null}
r -t 0.547336 -s 0 -d 1 -p cbr -e 210 -c 0 -i 12 -a 0 -x {0.0 3.0 12 ------- null}
+ -t 0.547336 -s 1 -d 2 -p cbr -e 210 -c 0 -i 12 -a 0 -x {0.0 3.0 12 ------- null}
- -t 0.547336 -s 1 -d 2 -p cbr -e 210 -c 0 -i 12 -a 0 -x {0.0 3.0 12 ------- null}
h -t 0.547336 -s 1 -d 2 -p cbr -e 210 -c 0 -i 12 -a 0 -x {0.0 3.0 -1 ------- null}
r -t 0.547532 -s 2 -d 3 -p cbr -e 210 -c 0 -i 10 -a 0 -x {0.0 3.0 10 ------- null}
+ -t 0.54875 -s 0 -d 1 -p cbr -e 210 -c 0 -i 13 -a 0 -x {0.0 3.0 13 ------- null}
- -t 0.54875 -s 0 -d 1 -p cbr -e 210 -c 0 -i 13 -a 0 -x {0.0 3.0 13 ------- null}
h -t 0.54875 -s 0 -d 1 -p cbr -e 210 -c 0 -i 13 -a 0 -x {0.0 3.0 -1 ------- null}
r -t 0.548946 -s 1 -d 2 -p cbr -e 210 -c 0 -i 11 -a 0 -x {0.0 3.0 11 ------- null}
+ -t 0.548946 -s 2 -d 3 -p cbr -e 210 -c 0 -i 11 -a 0 -x {0.0 3.0 11 ------- null}
- -t 0.548946 -s 2 -d 3 -p cbr -e 210 -c 0 -i 11 -a 0 -x {0.0 3.0 11 ------- null}
h -t 0.548946 -s 2 -d 3 -p cbr -e 210 -c 0 -i 11 -a 0 -x {0.0 3.0 -1 ------- null}
r -t 0.551086 -s 0 -d 1 -p cbr -e 210 -c 0 -i 13 -a 0 -x {0.0 3.0 13 ------- null}
+ -t 0.551086 -s 1 -d 2 -p cbr -e 210 -c 0 -i 13 -a 0 -x {0.0 3.0 13 ------- null}
- -t 0.551086 -s 1 -d 2 -p cbr -e 210 -c 0 -i 13 -a 0 -x {0.0 3.0 13 ------- null}
h -t 0.551086 -s 1 -d 2 -p cbr -e 210 -c 0 -i 13 -a 0 -x {0.0 3.0 -1 ------- null}
r -t 0.551282 -s 2 -d 3 -p cbr -e 210 -c 0 -i 11 -a 0 -x {0.0 3.0 11 ------- null}
+ -t 0.5525 -s 0 -d 1 -p cbr -e 210 -c 0 -i 14 -a 0 -x {0.0 3.0 14 ------- null}
- -t 0.5525 -s 0 -d 1 -p cbr -e 210 -c 0 -i 14 -a 0 -x {0.0 3.0 14 ------- null}
h -t 0.5525 -s 0 -d 1 -p cbr -e 210 -c 0 -i 14 -a 0 -x {0.0 3.0 -1 ------- null}
r -t 0.552696 -s 1 -d 2 -p cbr -e 210 -c 0 -i 12 -a 0 -x {0.0 3.0 12 ------- null}
+ -t 0.552696 -s 2 -d 3 -p cbr -e 210 -c 0 -i 12 -a 0 -x {0.0 3.0 12 ------- null}
- -t 0.552696 -s 2 -d 3 -p cbr -e 210 -c 0 -i 12 -a 0 -x {0.0 3.0 12 ------- null}
h -t 0.552696 -s 2 -d 3 -p cbr -e 210 -c 0 -i 12 -a 0 -x {0.0 3.0 -1 ------- null}
r -t 0.554836 -s 0 -d 1 -p cbr -e 210 -c 0 -i 14 -a 0 -x {0.0 3.0 14 ------- null}
+ -t 0.554836 -s 1 -d 2 -p cbr -e 210 -c 0 -i 14 -a 0 -x {0.0 3.0 14 ------- null}
- -t 0.554836 -s 1 -d 2 -p cbr -e 210 -c 0 -i 14 -a 0 -x {0.0 3.0 14 ------- null}
h -t 0.554836 -s 1 -d 2 -p cbr -e 210 -c 0 -i 14 -a 0 -x {0.0 3.0 -1 ------- null}
r -t 0.555032 -s 2 -d 3 -p cbr -e 210 -c 0 -i 12 -a 0 -x {0.0 3.0 12 ------- null}
+ -t 0.55625 -s 0 -d 1 -p cbr -e 210 -c 0 -i 15 -a 0 -x {0.0 3.0 15 ------- null}
- -t 0.55625 -s 0 -d 1 -p cbr -e 210 -c 0 -i 15 -a 0 -x {0.0 3.0 15 ------- null}
h -t 0.55625 -s 0 -d 1 -p cbr -e 210 -c 0 -i 15 -a 0 -x {0.0 3.0 -1 ------- null}
r -t 0.556446 -s 1 -d 2 -p cbr -e 210 -c 0 -i 13 -a 0 -x {0.0 3.0 13 ------- null}
+ -t 0.556446 -s 2 -d 3 -p cbr -e 210 -c 0 -i 13 -a 0 -x {0.0 3.0 13 ------- null}
- -t 0.556446 -s 2 -d 3 -p cbr -e 210 -c 0 -i 13 -a 0 -x {0.0 3.0 13 ------- null}
h -t 0.556446 -s 2 -d 3 -p cbr -e 210 -c 0 -i 13 -a 0 -x {0.0 3.0 -1 ------- null}
r -t 0.558586 -s 0 -d 1 -p cbr -e 210 -c 0 -i 15 -a 0 -x {0.0 3.0 15 ------- null}
+ -t 0.558586 -s 1 -d 2 -p cbr -e 210 -c 0 -i 15 -a 0 -x {0.0 3.0 15 ------- null}
- -t 0.558586 -s 1 -d 2 -p cbr -e 210 -c 0 -i 15 -a 0 -x {0.0 3.0 15 ------- null}
h -t 0.558586 -s 1 -d 2 -p cbr -e 210 -c 0 -i 15 -a 0 -x {0.0 3.0 -1 ------- null}
r -t 0.558782 -s 2 -d 3 -p cbr -e 210 -c 0 -i 13 -a 0 -x {0.0 3.0 13 ------- null}
+ -t 0.56 -s 0 -d 1 -p cbr -e 210 -c 0 -i 16 -a 0 -x {0.0 3.0 16 ------- null}
- -t 0.56 -s 0 -d 1 -p cbr -e 210 -c 0 -i 16 -a 0 -x {0.0 3.0 16 ------- null}
h -t 0.56 -s 0 -d 1 -p cbr -e 210 -c 0 -i 16 -a 0 -x {0.0 3.0 -1 ------- null}
r -t 0.560196 -s 1 -d 2 -p cbr -e 210 -c 0 -i 14 -a 0 -x {0.0 3.0 14 ------- null}
+ -t 0.560196 -s 2 -d 3 -p cbr -e 210 -c 0 -i 14 -a 0 -x {0.0 3.0 14 ------- null}
- -t 0.560196 -s 2 -d 3 -p cbr -e 210 -c 0 -i 14 -a 0 -x {0.0 3.0 14 ------- null}
h -t 0.560196 -s 2 -d 3 -p cbr -e 210 -c 0 -i 14 -a 0 -x {0.0 3.0 -1 ------- null}
r -t 0.562336000000001 -s 0 -d 1 -p cbr -e 210 -c 0 -i 16 -a 0 -x {0.0 3.0 16 ------- null}
+ -t 0.562336000000001 -s 1 -d 2 -p cbr -e 210 -c 0 -i 16 -a 0 -x {0.0 3.0 16 ------- null}
- -t 0.562336000000001 -s 1 -d 2 -p cbr -e 210 -c 0 -i 16 -a 0 -x {0.0 3.0 16 ------- null}
h -t 0.562336000000001 -s 1 -d 2 -p cbr -e 210 -c 0 -i 16 -a 0 -x {0.0 3.0 -1 ------- null}
r -t 0.562532 -s 2 -d 3 -p cbr -e 210 -c 0 -i 14 -a 0 -x {0.0 3.0 14 ------- null}
+ -t 0.563750000000001 -s 0 -d 1 -p cbr -e 210 -c 0 -i 17 -a 0 -x {0.0 3.0 17 ------- null}
- -t 0.563750000000001 -s 0 -d 1 -p cbr -e 210 -c 0 -i 17 -a 0 -x {0.0 3.0 17 ------- null}
h -t 0.563750000000001 -s 0 -d 1 -p cbr -e 210 -c 0 -i 17 -a 0 -x {0.0 3.0 -1 ------- null}
r -t 0.563946000000001 -s 1 -d 2 -p cbr -e 210 -c 0 -i 15 -a 0 -x {0.0 3.0 15 ------- null}
+ -t 0.563946000000001 -s 2 -d 3 -p cbr -e 210 -c 0 -i 15 -a 0 -x {0.0 3.0 15 ------- null}
- -t 0.563946000000001 -s 2 -d 3 -p cbr -e 210 -c 0 -i 15 -a 0 -x {0.0 3.0 15 ------- null}
h -t 0.563946000000001 -s 2 -d 3 -p cbr -e 210 -c 0 -i 15 -a 0 -x {0.0 3.0 -1 ------- null}
r -t 0.566086000000001 -s 0 -d 1 -p cbr -e 210 -c 0 -i 17 -a 0 -x {0.0 3.0 17 ------- null}
+ -t 0.566086000000001 -s 1 -d 2 -p cbr -e 210 -c 0 -i 17 -a 0 -x {0.0 3.0 17 ------- null}
- -t 0.566086000000001 -s 1 -d 2 -p cbr -e 210 -c 0 -i 17 -a 0 -x {0.0 3.0 17 ------- null}
h -t 0.566086000000001 -s 1 -d 2 -p cbr -e 210 -c 0 -i 17 -a 0 -x {0.0 3.0 -1 ------- null}
r -t 0.566282000000001 -s 2 -d 3 -p cbr -e 210 -c 0 -i 15 -a 0 -x {0.0 3.0 15 ------- null}
+ -t 0.567500000000001 -s 0 -d 1 -p cbr -e 210 -c 0 -i 18 -a 0 -x {0.0 3.0 18 ------- null}
- -t 0.567500000000001 -s 0 -d 1 -p cbr -e 210 -c 0 -i 18 -a 0 -x {0.0 3.0 18 ------- null}
h -t 0.567500000000001 -s 0 -d 1 -p cbr -e 210 -c 0 -i 18 -a 0 -x {0.0 3.0 -1 ------- null}
r -t 0.567696000000001 -s 1 -d 2 -p cbr -e 210 -c 0 -i 16 -a 0 -x {0.0 3.0 16 ------- null}
+ -t 0.567696000000001 -s 2 -d 3 -p cbr -e 210 -c 0 -i 16 -a 0 -x {0.0 3.0 16 ------- null}
- -t 0.567696000000001 -s 2 -d 3 -p cbr -e 210 -c 0 -i 16 -a 0 -x {0.0 3.0 16 ------- null}
h -t 0.567696000000001 -s 2 -d 3 -p cbr -e 210 -c 0 -i 16 -a 0 -x {0.0 3.0 -1 ------- null}
r -t 0.569836000000001 -s 0 -d 1 -p cbr -e 210 -c 0 -i 18 -a 0 -x {0.0 3.0 18 ------- null}
+ -t 0.569836000000001 -s 1 -d 2 -p cbr -e 210 -c 0 -i 18 -a 0 -x {0.0 3.0 18 ------- null}
- -t 0.569836000000001 -s 1 -d 2 -p cbr -e 210 -c 0 -i 18 -a 0 -x {0.0 3.0 18 ------- null}
h -t 0.569836000000001 -s 1 -d 2 -p cbr -e 210 -c 0 -i 18 -a 0 -x {0.0 3.0 -1 ------- null}
r -t 0.570032000000001 -s 2 -d 3 -p cbr -e 210 -c 0 -i 16 -a 0 -x {0.0 3.0 16 ------- null}
+ -t 0.571250000000001 -s 0 -d 1 -p cbr -e 210 -c 0 -i 19 -a 0 -x {0.0 3.0 19 ------- null}
- -t 0.571250000000001 -s 0 -d 1 -p cbr -e 210 -c 0 -i 19 -a 0 -x {0.0 3.0 19 ------- null}
h -t 0.571250000000001 -s 0 -d 1 -p cbr -e 210 -c 0 -i 19 -a 0 -x {0.0 3.0 -1 ------- null}
r -t 0.571446000000001 -s 1 -d 2 -p cbr -e 210 -c 0 -i 17 -a 0 -x {0.0 3.0 17 ------- null}
+ -t 0.571446000000001 -s 2 -d 3 -p cbr -e 210 -c 0 -i 17 -a 0 -x {0.0 3.0 17 ------- null}
- -t 0.571446000000001 -s 2 -d 3 -p cbr -e 210 -c 0 -i 17 -a 0 -x {0.0 3.0 17 ------- null}
h -t 0.571446000000001 -s 2 -d 3 -p cbr -e 210 -c 0 -i 17 -a 0 -x {0.0 3.0 -1 ------- null}
r -t 0.573586000000001 -s 0 -d 1 -p cbr -e 210 -c 0 -i 19 -a 0 -x {0.0 3.0 19 ------- null}
+ -t 0.573586000000001 -s 1 -d 2 -p cbr -e 210 -c 0 -i 19 -a 0 -x {0.0 3.0 19 ------- null}
- -t 0.573586000000001 -s 1 -d 2 -p cbr -e 210 -c 0 -i 19 -a 0 -x {0.0 3.0 19 ------- null}
h -t 0.573586000000001 -s 1 -d 2 -p cbr -e 210 -c 0 -i 19 -a 0 -x {0.0 3.0 -1 ------- null}
r -t 0.573782000000001 -s 2 -d 3 -p cbr -e 210 -c 0 -i 17 -a 0 -x {0.0 3.0 17 ------- null}
+ -t 0.575000000000001 -s 0 -d 1 -p cbr -e 210 -c 0 -i 20 -a 0 -x {0.0 3.0 20 ------- null}
- -t 0.575000000000001 -s 0 -d 1 -p cbr -e 210 -c 0 -i 20 -a 0 -x {0.0 3.0 20 ------- null}
h -t 0.575000000000001 -s 0 -d 1 -p cbr -e 210 -c 0 -i 20 -a 0 -x {0.0 3.0 -1 ------- null}
r -t 0.575196000000001 -s 1 -d 2 -p cbr -e 210 -c 0 -i 18 -a 0 -x {0.0 3.0 18 ------- null}
+ -t 0.575196000000001 -s 2 -d 3 -p cbr -e 210 -c 0 -i 18 -a 0 -x {0.0 3.0 18 ------- null}
- -t 0.575196000000001 -s 2 -d 3 -p cbr -e 210 -c 0 -i 18 -a 0 -x {0.0 3.0 18 ------- null}
h -t 0.575196000000001 -s 2 -d 3 -p cbr -e 210 -c 0 -i 18 -a 0 -x {0.0 3.0 -1 ------- null}
r -t 0.577336000000001 -s 0 -d 1 -p cbr -e 210 -c 0 -i 20 -a 0 -x {0.0 3.0 20 ------- null}
+ -t 0.577336000000001 -s 1 -d 2 -p cbr -e 210 -c 0 -i 20 -a 0 -x {0.0 3.0 20 ------- null}
- -t 0.577336000000001 -s 1 -d 2 -p cbr -e 210 -c 0 -i 20 -a 0 -x {0.0 3.0 20 ------- null}
h -t 0.577336000000001 -s 1 -d 2 -p cbr -e 210 -c 0 -i 20 -a 0 -x {0.0 3.0 -1 ------- null}
r -t 0.577532000000001 -s 2 -d 3 -p cbr -e 210 -c 0 -i 18 -a 0 -x {0.0 3.0 18 ------- null}
+ -t 0.578750000000001 -s 0 -d 1 -p cbr -e 210 -c 0 -i 21 -a 0 -x {0.0 3.0 21 ------- null}
- -t 0.578750000000001 -s 0 -d 1 -p cbr -e 210 -c 0 -i 21 -a 0 -x {0.0 3.0 21 ------- null}
h -t 0.578750000000001 -s 0 -d 1 -p cbr -e 210 -c 0 -i 21 -a 0 -x {0.0 3.0 -1 ------- null}
r -t 0.578946000000001 -s 1 -d 2 -p cbr -e 210 -c 0 -i 19 -a 0 -x {0.0 3.0 19 ------- null}
+ -t 0.578946000000001 -s 2 -d 3 -p cbr -e 210 -c 0 -i 19 -a 0 -x {0.0 3.0 19 ------- null}
- -t 0.578946000000001 -s 2 -d 3 -p cbr -e 210 -c 0 -i 19 -a 0 -x {0.0 3.0 19 ------- null}
h -t 0.578946000000001 -s 2 -d 3 -p cbr -e 210 -c 0 -i 19 -a 0 -x {0.0 3.0 -1 ------- null}
r -t 0.581086000000001 -s 0 -d 1 -p cbr -e 210 -c 0 -i 21 -a 0 -x {0.0 3.0 21 ------- null}
+ -t 0.581086000000001 -s 1 -d 2 -p cbr -e 210 -c 0 -i 21 -a 0 -x {0.0 3.0 21 ------- null}
- -t 0.581086000000001 -s 1 -d 2 -p cbr -e 210 -c 0 -i 21 -a 0 -x {0.0 3.0 21 ------- null}
h -t 0.581086000000001 -s 1 -d 2 -p cbr -e 210 -c 0 -i 21 -a 0 -x {0.0 3.0 -1 ------- null}
r -t 0.581282000000001 -s 2 -d 3 -p cbr -e 210 -c 0 -i 19 -a 0 -x {0.0 3.0 19 ------- null}
+ -t 0.582500000000001 -s 0 -d 1 -p cbr -e 210 -c 0 -i 22 -a 0 -x {0.0 3.0 22 ------- null}
- -t 0.582500000000001 -s 0 -d 1 -p cbr -e 210 -c 0 -i 22 -a 0 -x {0.0 3.0 22 ------- null}
h -t 0.582500000000001 -s 0 -d 1 -p cbr -e 210 -c 0 -i 22 -a 0 -x {0.0 3.0 -1 ------- null}
r -t 0.582696000000001 -s 1 -d 2 -p cbr -e 210 -c 0 -i 20 -a 0 -x {0.0 3.0 20 ------- null}
+ -t 0.582696000000001 -s 2 -d 3 -p cbr -e 210 -c 0 -i 20 -a 0 -x {0.0 3.0 20 ------- null}
- -t 0.582696000000001 -s 2 -d 3 -p cbr -e 210 -c 0 -i 20 -a 0 -x {0.0 3.0 20 ------- null}
h -t 0.582696000000001 -s 2 -d 3 -p cbr -e 210 -c 0 -i 20 -a 0 -x {0.0 3.0 -1 ------- null}
r -t 0.584836000000001 -s 0 -d 1 -p cbr -e 210 -c 0 -i 22 -a 0 -x {0.0 3.0 22 ------- null}
+ -t 0.584836000000001 -s 1 -d 2 -p cbr -e 210 -c 0 -i 22 -a 0 -x {0.0 3.0 22 ------- null}
- -t 0.584836000000001 -s 1 -d 2 -p cbr -e 210 -c 0 -i 22 -a 0 -x {0.0 3.0 22 ------- null}
h -t 0.584836000000001 -s 1 -d 2 -p cbr -e 210 -c 0 -i 22 -a 0 -x {0.0 3.0 -1 ------- null}
r -t 0.585032000000001 -s 2 -d 3 -p cbr -e 210 -c 0 -i 20 -a 0 -x {0.0 3.0 20 ------- null}
+ -t 0.586250000000001 -s 0 -d 1 -p cbr -e 210 -c 0 -i 23 -a 0 -x {0.0 3.0 23 ------- null}
- -t 0.586250000000001 -s 0 -d 1 -p cbr -e 210 -c 0 -i 23 -a 0 -x {0.0 3.0 23 ------- null}
h -t 0.586250000000001 -s 0 -d 1 -p cbr -e 210 -c 0 -i 23 -a 0 -x {0.0 3.0 -1 ------- null}
r -t 0.586446000000001 -s 1 -d 2 -p cbr -e 210 -c 0 -i 21 -a 0 -x {0.0 3.0 21 ------- null}
+ -t 0.586446000000001 -s 2 -d 3 -p cbr -e 210 -c 0 -i 21 -a 0 -x {0.0 3.0 21 ------- null}
- -t 0.586446000000001 -s 2 -d 3 -p cbr -e 210 -c 0 -i 21 -a 0 -x {0.0 3.0 21 ------- null}
h -t 0.586446000000001 -s 2 -d 3 -p cbr -e 210 -c 0 -i 21 -a 0 -x {0.0 3.0 -1 ------- null}
r -t 0.588586000000001 -s 0 -d 1 -p cbr -e 210 -c 0 -i 23 -a 0 -x {0.0 3.0 23 ------- null}
+ -t 0.588586000000001 -s 1 -d 2 -p cbr -e 210 -c 0 -i 23 -a 0 -x {0.0 3.0 23 ------- null}
- -t 0.588586000000001 -s 1 -d 2 -p cbr -e 210 -c 0 -i 23 -a 0 -x {0.0 3.0 23 ------- null}
h -t 0.588586000000001 -s 1 -d 2 -p cbr -e 210 -c 0 -i 23 -a 0 -x {0.0 3.0 -1 ------- null}
r -t 0.588782000000001 -s 2 -d 3 -p cbr -e 210 -c 0 -i 21 -a 0 -x {0.0 3.0 21 ------- null}
+ -t 0.590000000000001 -s 0 -d 1 -p cbr -e 210 -c 0 -i 24 -a 0 -x {0.0 3.0 24 ------- null}
- -t 0.590000000000001 -s 0 -d 1 -p cbr -e 210 -c 0 -i 24 -a 0 -x {0.0 3.0 24 ------- null}
h -t 0.590000000000001 -s 0 -d 1 -p cbr -e 210 -c 0 -i 24 -a 0 -x {0.0 3.0 -1 ------- null}
r -t 0.590196000000001 -s 1 -d 2 -p cbr -e 210 -c 0 -i 22 -a 0 -x {0.0 3.0 22 ------- null}
+ -t 0.590196000000001 -s 2 -d 3 -p cbr -e 210 -c 0 -i 22 -a 0 -x {0.0 3.0 22 ------- null}
- -t 0.590196000000001 -s 2 -d 3 -p cbr -e 210 -c 0 -i 22 -a 0 -x {0.0 3.0 22 ------- null}
h -t 0.590196000000001 -s 2 -d 3 -p cbr -e 210 -c 0 -i 22 -a 0 -x {0.0 3.0 -1 ------- null}
r -t 0.592336000000001 -s 0 -d 1 -p cbr -e 210 -c 0 -i 24 -a 0 -x {0.0 3.0 24 ------- null}
+ -t 0.592336000000001 -s 1 -d 2 -p cbr -e 210 -c 0 -i 24 -a 0 -x {0.0 3.0 24 ------- null}
- -t 0.592336000000001 -s 1 -d 2 -p cbr -e 210 -c 0 -i 24 -a 0 -x {0.0 3.0 24 ------- null}
h -t 0.592336000000001 -s 1 -d 2 -p cbr -e 210 -c 0 -i 24 -a 0 -x {0.0 3.0 -1 ------- null}
r -t 0.592532000000001 -s 2 -d 3 -p cbr -e 210 -c 0 -i 22 -a 0 -x {0.0 3.0 22 ------- null}
+ -t 0.593750000000001 -s 0 -d 1 -p cbr -e 210 -c 0 -i 25 -a 0 -x {0.0 3.0 25 ------- null}
- -t 0.593750000000001 -s 0 -d 1 -p cbr -e 210 -c 0 -i 25 -a 0 -x {0.0 3.0 25 ------- null}
h -t 0.593750000000001 -s 0 -d 1 -p cbr -e 210 -c 0 -i 25 -a 0 -x {0.0 3.0 -1 ------- null}
r -t 0.593946000000001 -s 1 -d 2 -p cbr -e 210 -c 0 -i 23 -a 0 -x {0.0 3.0 23 ------- null}
+ -t 0.593946000000001 -s 2 -d 3 -p cbr -e 210 -c 0 -i 23 -a 0 -x {0.0 3.0 23 ------- null}
- -t 0.593946000000001 -s 2 -d 3 -p cbr -e 210 -c 0 -i 23 -a 0 -x {0.0 3.0 23 ------- null}
h -t 0.593946000000001 -s 2 -d 3 -p cbr -e 210 -c 0 -i 23 -a 0 -x {0.0 3.0 -1 ------- null}
r -t 0.596086000000001 -s 0 -d 1 -p cbr -e 210 -c 0 -i 25 -a 0 -x {0.0 3.0 25 ------- null}
+ -t 0.596086000000001 -s 1 -d 2 -p cbr -e 210 -c 0 -i 25 -a 0 -x {0.0 3.0 25 ------- null}
- -t 0.596086000000001 -s 1 -d 2 -p cbr -e 210 -c 0 -i 25 -a 0 -x {0.0 3.0 25 ------- null}
h -t 0.596086000000001 -s 1 -d 2 -p cbr -e 210 -c 0 -i 25 -a 0 -x {0.0 3.0 -1 ------- null}
r -t 0.596282000000001 -s 2 -d 3 -p cbr -e 210 -c 0 -i 23 -a 0 -x {0.0 3.0 23 ------- null}
+ -t 0.597500000000001 -s 0 -d 1 -p cbr -e 210 -c 0 -i 26 -a 0 -x {0.0 3.0 26 ------- null}
- -t 0.597500000000001 -s 0 -d 1 -p cbr -e 210 -c 0 -i 26 -a 0 -x {0.0 3.0 26 ------- null}
h -t 0.597500000000001 -s 0 -d 1 -p cbr -e 210 -c 0 -i 26 -a 0 -x {0.0 3.0 -1 ------- null}
r -t 0.597696000000001 -s 1 -d 2 -p cbr -e 210 -c 0 -i 24 -a 0 -x {0.0 3.0 24 ------- null}
+ -t 0.597696000000001 -s 2 -d 3 -p cbr -e 210 -c 0 -i 24 -a 0 -x {0.0 3.0 24 ------- null}
- -t 0.597696000000001 -s 2 -d 3 -p cbr -e 210 -c 0 -i 24 -a 0 -x {0.0 3.0 24 ------- null}
h -t 0.597696000000001 -s 2 -d 3 -p cbr -e 210 -c 0 -i 24 -a 0 -x {0.0 3.0 -1 ------- null}
r -t 0.599836000000001 -s 0 -d 1 -p cbr -e 210 -c 0 -i 26 -a 0 -x {0.0 3.0 26 ------- null}
+ -t 0.599836000000001 -s 1 -d 2 -p cbr -e 210 -c 0 -i 26 -a 0 -x {0.0 3.0 26 ------- null}
- -t 0.599836000000001 -s 1 -d 2 -p cbr -e 210 -c 0 -i 26 -a 0 -x {0.0 3.0 26 ------- null}
h -t 0.599836000000001 -s 1 -d 2 -p cbr -e 210 -c 0 -i 26 -a 0 -x {0.0 3.0 -1 ------- null}
r -t 0.600032000000001 -s 2 -d 3 -p cbr -e 210 -c 0 -i 24 -a 0 -x {0.0 3.0 24 ------- null}
+ -t 0.601250000000001 -s 0 -d 1 -p cbr -e 210 -c 0 -i 27 -a 0 -x {0.0 3.0 27 ------- null}
- -t 0.601250000000001 -s 0 -d 1 -p cbr -e 210 -c 0 -i 27 -a 0 -x {0.0 3.0 27 ------- null}
h -t 0.601250000000001 -s 0 -d 1 -p cbr -e 210 -c 0 -i 27 -a 0 -x {0.0 3.0 -1 ------- null}
r -t 0.601446000000001 -s 1 -d 2 -p cbr -e 210 -c 0 -i 25 -a 0 -x {0.0 3.0 25 ------- null}
+ -t 0.601446000000001 -s 2 -d 3 -p cbr -e 210 -c 0 -i 25 -a 0 -x {0.0 3.0 25 ------- null}
- -t 0.601446000000001 -s 2 -d 3 -p cbr -e 210 -c 0 -i 25 -a 0 -x {0.0 3.0 25 ------- null}
h -t 0.601446000000001 -s 2 -d 3 -p cbr -e 210 -c 0 -i 25 -a 0 -x {0.0 3.0 -1 ------- null}
r -t 0.603586000000001 -s 0 -d 1 -p cbr -e 210 -c 0 -i 27 -a 0 -x {0.0 3.0 27 ------- null}
+ -t 0.603586000000001 -s 1 -d 2 -p cbr -e 210 -c 0 -i 27 -a 0 -x {0.0 3.0 27 ------- null}
- -t 0.603586000000001 -s 1 -d 2 -p cbr -e 210 -c 0 -i 27 -a 0 -x {0.0 3.0 27 ------- null}
h -t 0.603586000000001 -s 1 -d 2 -p cbr -e 210 -c 0 -i 27 -a 0 -x {0.0 3.0 -1 ------- null}
r -t 0.603782000000001 -s 2 -d 3 -p cbr -e 210 -c 0 -i 25 -a 0 -x {0.0 3.0 25 ------- null}
+ -t 0.605000000000001 -s 0 -d 1 -p cbr -e 210 -c 0 -i 28 -a 0 -x {0.0 3.0 28 ------- null}
- -t 0.605000000000001 -s 0 -d 1 -p cbr -e 210 -c 0 -i 28 -a 0 -x {0.0 3.0 28 ------- null}
h -t 0.605000000000001 -s 0 -d 1 -p cbr -e 210 -c 0 -i 28 -a 0 -x {0.0 3.0 -1 ------- null}
r -t 0.605196000000001 -s 1 -d 2 -p cbr -e 210 -c 0 -i 26 -a 0 -x {0.0 3.0 26 ------- null}
+ -t 0.605196000000001 -s 2 -d 3 -p cbr -e 210 -c 0 -i 26 -a 0 -x {0.0 3.0 26 ------- null}
- -t 0.605196000000001 -s 2 -d 3 -p cbr -e 210 -c 0 -i 26 -a 0 -x {0.0 3.0 26 ------- null}
h -t 0.605196000000001 -s 2 -d 3 -p cbr -e 210 -c 0 -i 26 -a 0 -x {0.0 3.0 -1 ------- null}
r -t 0.607336000000001 -s 0 -d 1 -p cbr -e 210 -c 0 -i 28 -a 0 -x {0.0 3.0 28 ------- null}
+ -t 0.607336000000001 -s 1 -d 2 -p cbr -e 210 -c 0 -i 28 -a 0 -x {0.0 3.0 28 ------- null}
- -t 0.607336000000001 -s 1 -d 2 -p cbr -e 210 -c 0 -i 28 -a 0 -x {0.0 3.0 28 ------- null}