V -t * -v 1.0a5 -a 0
A -t * -n 1 -p 0 -o 0x7fffffff -c 30 -a 1
A -t * -h 1 -m 1073741823 -s 0
c -t * -i 0 -n blue
c -t * -i 1 -n red
c -t * -i 2 -n green
c -t * -i 3 -n black
n -t * -a 4 -s 4 -S UP -v circle -c black -i black
n -t * -a 0 -s 0 -S UP -v circle -c black -i black
n -t * -a 5 -s 5 -S UP -v circle -c black -i black
n -t * -a 1 -s 1 -S UP -v circle -c black -i black
n -t * -a 6 -s 6 -S UP -v circle -c black -i black
n -t * -a 2 -s 2 -S UP -v circle -c black -i black
n -t * -a 7 -s 7 -S UP -v circle -c black -i black
n -t * -a 3 -s 3 -S UP -v circle -c black -i black
l -t * -s 0 -d 1 -S UP -r 5000000 -D 0.002 -c black -o right
l -t * -s 1 -d 2 -S UP -r 1500000 -D 0.002 -c black -o right
l -t * -s 2 -d 3 -S UP -r 5000000 -D 0.002 -c black -o right
l -t * -s 1 -d 4 -S UP -r 1500000 -D 0.01 -c black -o down
l -t * -s 2 -d 5 -S UP -r 1500000 -D 0.01 -c black -o down
l -t * -s 1 -d 6 -S UP -r 1500000 -D 0.01 -c black -o up
l -t * -s 2 -d 7 -S UP -r 1500000 -D 0.01 -c black -o up
+ -t 0.1 -s 4 -d 1 -p tcp -e 40 -c 2 -i 0 -a 2 -x {4.0 7.0 0 ------- null}
- -t 0.1 -s 4 -d 1 -p tcp -e 40 -c 2 -i 0 -a 2 -x {4.0 7.0 0 ------- null}
h -t 0.1 -s 4 -d 1 -p tcp -e 40 -c 2 -i 0 -a 2 -x {4.0 7.0 -1 ------- null}
r -t 0.110213333333333 -s 4 -d 1 -p tcp -e 40 -c 2 -i 0 -a 2 -x {4.0 7.0 0 ------- null}
+ -t 0.110213333333333 -s 1 -d 2 -p tcp -e 40 -c 2 -i 0 -a 2 -x {4.0 7.0 0 ------- null}
- -t 0.110213333333333 -s 1 -d 2 -p tcp -e 40 -c 2 -i 0 -a 2 -x {4.0 7.0 0 ------- null}
h -t 0.110213333333333 -s 1 -d 2 -p tcp -e 40 -c 2 -i 0 -a 2 -x {4.0 7.0 -1 ------- null}
r -t 0.112426666666667 -s 1 -d 2 -p tcp -e 40 -c 2 -i 0 -a 2 -x {4.0 7.0 0 ------- null}
+ -t 0.112426666666667 -s 2 -d 7 -p tcp -e 40 -c 2 -i 0 -a 2 -x {4.0 7.0 0 ------- null}
- -t 0.112426666666667 -s 2 -d 7 -p tcp -e 40 -c 2 -i 0 -a 2 -x {4.0 7.0 0 ------- null}
h -t 0.112426666666667 -s 2 -d 7 -p tcp -e 40 -c 2 -i 0 -a 2 -x {4.0 7.0 -1 ------- null}
r -t 0.12264 -s 2 -d 7 -p tcp -e 40 -c 2 -i 0 -a 2 -x {4.0 7.0 0 ------- null}
+ -t 0.12264 -s 7 -d 2 -p ack -e 40 -c 2 -i 1 -a 2 -x {7.0 4.0 0 ------- null}
- -t 0.12264 -s 7 -d 2 -p ack -e 40 -c 2 -i 1 -a 2 -x {7.0 4.0 0 ------- null}
h -t 0.12264 -s 7 -d 2 -p ack -e 40 -c 2 -i 1 -a 2 -x {7.0 4.0 -1 ------- null}
r -t 0.132853333333333 -s 7 -d 2 -p ack -e 40 -c 2 -i 1 -a 2 -x {7.0 4.0 0 ------- null}
+ -t 0.132853333333333 -s 2 -d 1 -p ack -e 40 -c 2 -i 1 -a 2 -x {7.0 4.0 0 ------- null}
- -t 0.132853333333333 -s 2 -d 1 -p ack -e 40 -c 2 -i 1 -a 2 -x {7.0 4.0 0 ------- null}
h -t 0.132853333333333 -s 2 -d 1 -p ack -e 40 -c 2 -i 1 -a 2 -x {7.0 4.0 -1 ------- null}
r -t 0.135066666666667 -s 2 -d 1 -p ack -e 40 -c 2 -i 1 -a 2 -x {7.0 4.0 0 ------- null}
+ -t 0.135066666666667 -s 1 -d 4 -p ack -e 40 -c 2 -i 1 -a 2 -x {7.0 4.0 0 ------- null}
- -t 0.135066666666667 -s 1 -d 4 -p ack -e 40 -c 2 -i 1 -a 2 -x {7.0 4.0 0 ------- null}
h -t 0.135066666666667 -s 1 -d 4 -p ack -e 40 -c 2 -i 1 -a 2 -x {7.0 4.0 -1 ------- null}
r -t 0.14528 -s 1 -d 4 -p ack -e 40 -c 2 -i 1 -a 2 -x {7.0 4.0 0 ------- null}
+ -t 0.14528 -s 4 -d 1 -p tcp -e 1040 -c 2 -i 2 -a 2 -x {4.0 7.0 1 ------- null}
- -t 0.14528 -s 4 -d 1 -p tcp -e 1040 -c 2 -i 2 -a 2 -x {4.0 7.0 1 ------- null}
h -t 0.14528 -s 4 -d 1 -p tcp -e 1040 -c 2 -i 2 -a 2 -x {4.0 7.0 -1 ------- null}
+ -t 0.14528 -s 4 -d 1 -p tcp -e 1040 -c 2 -i 3 -a 2 -x {4.0 7.0 2 ------- null}
- -t 0.150826666666667 -s 4 -d 1 -p tcp -e 1040 -c 2 -i 3 -a 2 -x {4.0 7.0 2 ------- null}
h -t 0.150826666666667 -s 4 -d 1 -p tcp -e 1040 -c 2 -i 3 -a 2 -x {4.0 7.0 -1 ------- null}
r -t 0.160826666666667 -s 4 -d 1 -p tcp -e 1040 -c 2 -i 2 -a 2 -x {4.0 7.0 1 ------- null}
+ -t 0.160826666666667 -s 1 -d 2 -p tcp -e 1040 -c 2 -i 2 -a 2 -x {4.0 7.0 1 ------- null}
- -t 0.160826666666667 -s 1 -d 2 -p tcp -e 1040 -c 2 -i 2 -a 2 -x {4.0 7.0 1 ------- null}
h -t 0.160826666666667 -s 1 -d 2 -p tcp -e 1040 -c 2 -i 2 -a 2 -x {4.0 7.0 -1 ------- null}
r -t 0.166373333333333 -s 4 -d 1 -p tcp -e 1040 -c 2 -i 3 -a 2 -x {4.0 7.0 2 ------- null}
+ -t 0.166373333333333 -s 1 -d 2 -p tcp -e 1040 -c 2 -i 3 -a 2 -x {4.0 7.0 2 ------- null}
- -t 0.166373333333333 -s 1 -d 2 -p tcp -e 1040 -c 2 -i 3 -a 2 -x {4.0 7.0 2 ------- null}
h -t 0.166373333333333 -s 1 -d 2 -p tcp -e 1040 -c 2 -i 3 -a 2 -x {4.0 7.0 -1 ------- null}
r -t 0.168373333333333 -s 1 -d 2 -p tcp -e 1040 -c 2 -i 2 -a 2 -x {4.0 7.0 1 ------- null}
+ -t 0.168373333333333 -s 2 -d 7 -p tcp -e 1040 -c 2 -i 2 -a 2 -x {4.0 7.0 1 ------- null}
- -t 0.168373333333333 -s 2 -d 7 -p tcp -e 1040 -c 2 -i 2 -a 2 -x {4.0 7.0 1 ------- null}
h -t 0.168373333333333 -s 2 -d 7 -p tcp -e 1040 -c 2 -i 2 -a 2 -x {4.0 7.0 -1 ------- null}
r -t 0.17392 -s 1 -d 2 -p tcp -e 1040 -c 2 -i 3 -a 2 -x {4.0 7.0 2 ------- null}
+ -t 0.17392 -s 2 -d 7 -p tcp -e 1040 -c 2 -i 3 -a 2 -x {4.0 7.0 2 ------- null}
- -t 0.17392 -s 2 -d 7 -p tcp -e 1040 -c 2 -i 3 -a 2 -x {4.0 7.0 2 ------- null}
h -t 0.17392 -s 2 -d 7 -p tcp -e 1040 -c 2 -i 3 -a 2 -x {4.0 7.0 -1 ------- null}
r -t 0.18392 -s 2 -d 7 -p tcp -e 1040 -c 2 -i 2 -a 2 -x {4.0 7.0 1 ------- null}
+ -t 0.18392 -s 7 -d 2 -p ack -e 40 -c 2 -i 4 -a 2 -x {7.0 4.0 1 ------- null}
- -t 0.18392 -s 7 -d 2 -p ack -e 40 -c 2 -i 4 -a 2 -x {7.0 4.0 1 ------- null}
h -t 0.18392 -s 7 -d 2 -p ack -e 40 -c 2 -i 4 -a 2 -x {7.0 4.0 -1 ------- null}
r -t 0.189466666666667 -s 2 -d 7 -p tcp -e 1040 -c 2 -i 3 -a 2 -x {4.0 7.0 2 ------- null}
+ -t 0.189466666666667 -s 7 -d 2 -p ack -e 40 -c 2 -i 5 -a 2 -x {7.0 4.0 2 ------- null}
- -t 0.189466666666667 -s 7 -d 2 -p ack -e 40 -c 2 -i 5 -a 2 -x {7.0 4.0 2 ------- null}
h -t 0.189466666666667 -s 7 -d 2 -p ack -e 40 -c 2 -i 5 -a 2 -x {7.0 4.0 -1 ------- null}
r -t 0.194133333333333 -s 7 -d 2 -p ack -e 40 -c 2 -i 4 -a 2 -x {7.0 4.0 1 ------- null}
+ -t 0.194133333333333 -s 2 -d 1 -p ack -e 40 -c 2 -i 4 -a 2 -x {7.0 4.0 1 ------- null}
- -t 0.194133333333333 -s 2 -d 1 -p ack -e 40 -c 2 -i 4 -a 2 -x {7.0 4.0 1 ------- null}
h -t 0.194133333333333 -s 2 -d 1 -p ack -e 40 -c 2 -i 4 -a 2 -x {7.0 4.0 -1 ------- null}
r -t 0.196346666666667 -s 2 -d 1 -p ack -e 40 -c 2 -i 4 -a 2 -x {7.0 4.0 1 ------- null}
+ -t 0.196346666666667 -s 1 -d 4 -p ack -e 40 -c 2 -i 4 -a 2 -x {7.0 4.0 1 ------- null}
- -t 0.196346666666667 -s 1 -d 4 -p ack -e 40 -c 2 -i 4 -a 2 -x {7.0 4.0 1 ------- null}
h -t 0.196346666666667 -s 1 -d 4 -p ack -e 40 -c 2 -i 4 -a 2 -x {7.0 4.0 -1 ------- null}
r -t 0.19968 -s 7 -d 2 -p ack -e 40 -c 2 -i 5 -a 2 -x {7.0 4.0 2 ------- null}
+ -t 0.19968 -s 2 -d 1 -p ack -e 40 -c 2 -i 5 -a 2 -x {7.0 4.0 2 ------- null}
- -t 0.19968 -s 2 -d 1 -p ack -e 40 -c 2 -i 5 -a 2 -x {7.0 4.0 2 ------- null}
h -t 0.19968 -s 2 -d 1 -p ack -e 40 -c 2 -i 5 -a 2 -x {7.0 4.0 -1 ------- null}
+ -t 0.2 -s 5 -d 2 -p tcp -e 40 -c 3 -i 6 -a 3 -x {5.0 6.2 0 ------- null}
- -t 0.2 -s 5 -d 2 -p tcp -e 40 -c 3 -i 6 -a 3 -x {5.0 6.2 0 ------- null}
h -t 0.2 -s 5 -d 2 -p tcp -e 40 -c 3 -i 6 -a 3 -x {5.0 6.2 -1 ------- null}
r -t 0.201893333333333 -s 2 -d 1 -p ack -e 40 -c 2 -i 5 -a 2 -x {7.0 4.0 2 ------- null}
+ -t 0.201893333333333 -s 1 -d 4 -p ack -e 40 -c 2 -i 5 -a 2 -x {7.0 4.0 2 ------- null}
- -t 0.201893333333333 -s 1 -d 4 -p ack -e 40 -c 2 -i 5 -a 2 -x {7.0 4.0 2 ------- null}
h -t 0.201893333333333 -s 1 -d 4 -p ack -e 40 -c 2 -i 5 -a 2 -x {7.0 4.0 -1 ------- null}
r -t 0.20656 -s 1 -d 4 -p ack -e 40 -c 2 -i 4 -a 2 -x {7.0 4.0 1 ------- null}
+ -t 0.20656 -s 4 -d 1 -p tcp -e 1040 -c 2 -i 7 -a 2 -x {4.0 7.0 3 ------- null}
- -t 0.20656 -s 4 -d 1 -p tcp -e 1040 -c 2 -i 7 -a 2 -x {4.0 7.0 3 ------- null}
h -t 0.20656 -s 4 -d 1 -p tcp -e 1040 -c 2 -i 7 -a 2 -x {4.0 7.0 -1 ------- null}
+ -t 0.20656 -s 4 -d 1 -p tcp -e 1040 -c 2 -i 8 -a 2 -x {4.0 7.0 4 ------- null}
r -t 0.210213333333333 -s 5 -d 2 -p tcp -e 40 -c 3 -i 6 -a 3 -x {5.0 6.2 0 ------- null}
+ -t 0.210213333333333 -s 2 -d 1 -p tcp -e 40 -c 3 -i 6 -a 3 -x {5.0 6.2 0 ------- null}
- -t 0.210213333333333 -s 2 -d 1 -p tcp -e 40 -c 3 -i 6 -a 3 -x {5.0 6.2 0 ------- null}
h -t 0.210213333333333 -s 2 -d 1 -p tcp -e 40 -c 3 -i 6 -a 3 -x {5.0 6.2 -1 ------- null}
- -t 0.212106666666667 -s 4 -d 1 -p tcp -e 1040 -c 2 -i 8 -a 2 -x {4.0 7.0 4 ------- null}
h -t 0.212106666666667 -s 4 -d 1 -p tcp -e 1040 -c 2 -i 8 -a 2 -x {4.0 7.0 -1 ------- null}
r -t 0.212106666666667 -s 1 -d 4 -p ack -e 40 -c 2 -i 5 -a 2 -x {7.0 4.0 2 ------- null}
+ -t 0.212106666666667 -s 4 -d 1 -p tcp -e 1040 -c 2 -i 9 -a 2 -x {4.0 7.0 5 ------- null}
+ -t 0.212106666666667 -s 4 -d 1 -p tcp -e 1040 -c 2 -i 10 -a 2 -x {4.0 7.0 6 ------- null}
r -t 0.212426666666667 -s 2 -d 1 -p tcp -e 40 -c 3 -i 6 -a 3 -x {5.0 6.2 0 ------- null}
+ -t 0.212426666666667 -s 1 -d 6 -p tcp -e 40 -c 3 -i 6 -a 3 -x {5.0 6.2 0 ------- null}
- -t 0.212426666666667 -s 1 -d 6 -p tcp -e 40 -c 3 -i 6 -a 3 -x {5.0 6.2 0 ------- null}
h -t 0.212426666666667 -s 1 -d 6 -p tcp -e 40 -c 3 -i 6 -a 3 -x {5.0 6.2 -1 ------- null}
- -t 0.217653333333333 -s 4 -d 1 -p tcp -e 1040 -c 2 -i 9 -a 2 -x {4.0 7.0 5 ------- null}
h -t 0.217653333333333 -s 4 -d 1 -p tcp -e 1040 -c 2 -i 9 -a 2 -x {4.0 7.0 -1 ------- null}
r -t 0.222106666666667 -s 4 -d 1 -p tcp -e 1040 -c 2 -i 7 -a 2 -x {4.0 7.0 3 ------- null}
+ -t 0.222106666666667 -s 1 -d 2 -p tcp -e 1040 -c 2 -i 7 -a 2 -x {4.0 7.0 3 ------- null}
- -t 0.222106666666667 -s 1 -d 2 -p tcp -e 1040 -c 2 -i 7 -a 2 -x {4.0 7.0 3 ------- null}
h -t 0.222106666666667 -s 1 -d 2 -p tcp -e 1040 -c 2 -i 7 -a 2 -x {4.0 7.0 -1 ------- null}
r -t 0.22264 -s 1 -d 6 -p tcp -e 40 -c 3 -i 6 -a 3 -x {5.0 6.2 0 ------- null}
+ -t 0.22264 -s 6 -d 1 -p ack -e 40 -c 3 -i 11 -a 3 -x {6.2 5.0 0 ------- null}
- -t 0.22264 -s 6 -d 1 -p ack -e 40 -c 3 -i 11 -a 3 -x {6.2 5.0 0 ------- null}
h -t 0.22264 -s 6 -d 1 -p ack -e 40 -c 3 -i 11 -a 3 -x {6.2 5.0 -1 ------- null}
- -t 0.2232 -s 4 -d 1 -p tcp -e 1040 -c 2 -i 10 -a 2 -x {4.0 7.0 6 ------- null}
h -t 0.2232 -s 4 -d 1 -p tcp -e 1040 -c 2 -i 10 -a 2 -x {4.0 7.0 -1 ------- null}
r -t 0.227653333333333 -s 4 -d 1 -p tcp -e 1040 -c 2 -i 8 -a 2 -x {4.0 7.0 4 ------- null}
+ -t 0.227653333333333 -s 1 -d 2 -p tcp -e 1040 -c 2 -i 8 -a 2 -x {4.0 7.0 4 ------- null}
- -t 0.227653333333333 -s 1 -d 2 -p tcp -e 1040 -c 2 -i 8 -a 2 -x {4.0 7.0 4 ------- null}
h -t 0.227653333333333 -s 1 -d 2 -p tcp -e 1040 -c 2 -i 8 -a 2 -x {4.0 7.0 -1 ------- null}
r -t 0.229653333333333 -s 1 -d 2 -p tcp -e 1040 -c 2 -i 7 -a 2 -x {4.0 7.0 3 ------- null}
+ -t 0.229653333333333 -s 2 -d 7 -p tcp -e 1040 -c 2 -i 7 -a 2 -x {4.0 7.0 3 ------- null}
- -t 0.229653333333333 -s 2 -d 7 -p tcp -e 1040 -c 2 -i 7 -a 2 -x {4.0 7.0 3 ------- null}
h -t 0.229653333333333 -s 2 -d 7 -p tcp -e 1040 -c 2 -i 7 -a 2 -x {4.0 7.0 -1 ------- null}
r -t 0.232853333333333 -s 6 -d 1 -p ack -e 40 -c 3 -i 11 -a 3 -x {6.2 5.0 0 ------- null}
+ -t 0.232853333333333 -s 1 -d 2 -p ack -e 40 -c 3 -i 11 -a 3 -x {6.2 5.0 0 ------- null}
r -t 0.2332 -s 4 -d 1 -p tcp -e 1040 -c 2 -i 9 -a 2 -x {4.0 7.0 5 ------- null}
+ -t 0.2332 -s 1 -d 2 -p tcp -e 1040 -c 2 -i 9 -a 2 -x {4.0 7.0 5 ------- null}
- -t 0.2332 -s 1 -d 2 -p ack -e 40 -c 3 -i 11 -a 3 -x {6.2 5.0 0 ------- null}
h -t 0.2332 -s 1 -d 2 -p ack -e 40 -c 3 -i 11 -a 3 -x {6.2 5.0 -1 ------- null}
- -t 0.233413333333333 -s 1 -d 2 -p tcp -e 1040 -c 2 -i 9 -a 2 -x {4.0 7.0 5 ------- null}
h -t 0.233413333333333 -s 1 -d 2 -p tcp -e 1040 -c 2 -i 9 -a 2 -x {4.0 7.0 -1 ------- null}
r -t 0.2352 -s 1 -d 2 -p tcp -e 1040 -c 2 -i 8 -a 2 -x {4.0 7.0 4 ------- null}
+ -t 0.2352 -s 2 -d 7 -p tcp -e 1040 -c 2 -i 8 -a 2 -x {4.0 7.0 4 ------- null}
- -t 0.2352 -s 2 -d 7 -p tcp -e 1040 -c 2 -i 8 -a 2 -x {4.0 7.0 4 ------- null}
h -t 0.2352 -s 2 -d 7 -p tcp -e 1040 -c 2 -i 8 -a 2 -x {4.0 7.0 -1 ------- null}
r -t 0.235413333333333 -s 1 -d 2 -p ack -e 40 -c 3 -i 11 -a 3 -x {6.2 5.0 0 ------- null}
+ -t 0.235413333333333 -s 2 -d 5 -p ack -e 40 -c 3 -i 11 -a 3 -x {6.2 5.0 0 ------- null}
- -t 0.235413333333333 -s 2 -d 5 -p ack -e 40 -c 3 -i 11 -a 3 -x {6.2 5.0 0 ------- null}
h -t 0.235413333333333 -s 2 -d 5 -p ack -e 40 -c 3 -i 11 -a 3 -x {6.2 5.0 -1 ------- null}
r -t 0.238746666666667 -s 4 -d 1 -p tcp -e 1040 -c 2 -i 10 -a 2 -x {4.0 7.0 6 ------- null}
+ -t 0.238746666666667 -s 1 -d 2 -p tcp -e 1040 -c 2 -i 10 -a 2 -x {4.0 7.0 6 ------- null}
- -t 0.23896 -s 1 -d 2 -p tcp -e 1040 -c 2 -i 10 -a 2 -x {4.0 7.0 6 ------- null}
h -t 0.23896 -s 1 -d 2 -p tcp -e 1040 -c 2 -i 10 -a 2 -x {4.0 7.0 -1 ------- null}
r -t 0.24096 -s 1 -d 2 -p tcp -e 1040 -c 2 -i 9 -a 2 -x {4.0 7.0 5 ------- null}
+ -t 0.24096 -s 2 -d 7 -p tcp -e 1040 -c 2 -i 9 -a 2 -x {4.0 7.0 5 ------- null}
- -t 0.24096 -s 2 -d 7 -p tcp -e 1040 -c 2 -i 9 -a 2 -x {4.0 7.0 5 ------- null}
h -t 0.24096 -s 2 -d 7 -p tcp -e 1040 -c 2 -i 9 -a 2 -x {4.0 7.0 -1 ------- null}
r -t 0.2452 -s 2 -d 7 -p tcp -e 1040 -c 2 -i 7 -a 2 -x {4.0 7.0 3 ------- null}
+ -t 0.2452 -s 7 -d 2 -p ack -e 40 -c 2 -i 12 -a 2 -x {7.0 4.0 3 ------- null}
- -t 0.2452 -s 7 -d 2 -p ack -e 40 -c 2 -i 12 -a 2 -x {7.0 4.0 3 ------- null}
h -t 0.2452 -s 7 -d 2 -p ack -e 40 -c 2 -i 12 -a 2 -x {7.0 4.0 -1 ------- null}
r -t 0.245626666666667 -s 2 -d 5 -p ack -e 40 -c 3 -i 11 -a 3 -x {6.2 5.0 0 ------- null}
+ -t 0.245626666666667 -s 5 -d 2 -p tcp -e 1040 -c 3 -i 13 -a 3 -x {5.0 6.2 1 ------- null}
- -t 0.245626666666667 -s 5 -d 2 -p tcp -e 1040 -c 3 -i 13 -a 3 -x {5.0 6.2 1 ------- null}
h -t 0.245626666666667 -s 5 -d 2 -p tcp -e 1040 -c 3 -i 13 -a 3 -x {5.0 6.2 -1 ------- null}
+ -t 0.245626666666667 -s 5 -d 2 -p tcp -e 1040 -c 3 -i 14 -a 3 -x {5.0 6.2 2 ------- null}
r -t 0.246506666666667 -s 1 -d 2 -p tcp -e 1040 -c 2 -i 10 -a 2 -x {4.0 7.0 6 ------- null}
+ -t 0.246506666666667 -s 2 -d 7 -p tcp -e 1040 -c 2 -i 10 -a 2 -x {4.0 7.0 6 ------- null}
- -t 0.246506666666667 -s 2 -d 7 -p tcp -e 1040 -c 2 -i 10 -a 2 -x {4.0 7.0 6 ------- null}
h -t 0.246506666666667 -s 2 -d 7 -p tcp -e 1040 -c 2 -i 10 -a 2 -x {4.0 7.0 -1 ------- null}
r -t 0.250746666666667 -s 2 -d 7 -p tcp -e 1040 -c 2 -i 8 -a 2 -x {4.0 7.0 4 ------- null}
+ -t 0.250746666666667 -s 7 -d 2 -p ack -e 40 -c 2 -i 15 -a 2 -x {7.0 4.0 4 ------- null}
- -t 0.250746666666667 -s 7 -d 2 -p ack -e 40 -c 2 -i 15 -a 2 -x {7.0 4.0 4 ------- null}
h -t 0.250746666666667 -s 7 -d 2 -p ack -e 40 -c 2 -i 15 -a 2 -x {7.0 4.0 -1 ------- null}
- -t 0.251173333333333 -s 5 -d 2 -p tcp -e 1040 -c 3 -i 14 -a 3 -x {5.0 6.2 2 ------- null}
h -t 0.251173333333333 -s 5 -d 2 -p tcp -e 1040 -c 3 -i 14 -a 3 -x {5.0 6.2 -1 ------- null}
r -t 0.255413333333333 -s 7 -d 2 -p ack -e 40 -c 2 -i 12 -a 2 -x {7.0 4.0 3 ------- null}
+ -t 0.255413333333333 -s 2 -d 1 -p ack -e 40 -c 2 -i 12 -a 2 -x {7.0 4.0 3 ------- null}
- -t 0.255413333333333 -s 2 -d 1 -p ack -e 40 -c 2 -i 12 -a 2 -x {7.0 4.0 3 ------- null}
h -t 0.255413333333333 -s 2 -d 1 -p ack -e 40 -c 2 -i 12 -a 2 -x {7.0 4.0 -1 ------- null}
r -t 0.256506666666667 -s 2 -d 7 -p tcp -e 1040 -c 2 -i 9 -a 2 -x {4.0 7.0 5 ------- null}
+ -t 0.256506666666667 -s 7 -d 2 -p ack -e 40 -c 2 -i 16 -a 2 -x {7.0 4.0 5 ------- null}
- -t 0.256506666666667 -s 7 -d 2 -p ack -e 40 -c 2 -i 16 -a 2 -x {7.0 4.0 5 ------- null}
h -t 0.256506666666667 -s 7 -d 2 -p ack -e 40 -c 2 -i 16 -a 2 -x {7.0 4.0 -1 ------- null}
r -t 0.257626666666667 -s 2 -d 1 -p ack -e 40 -c 2 -i 12 -a 2 -x {7.0 4.0 3 ------- null}
+ -t 0.257626666666667 -s 1 -d 4 -p ack -e 40 -c 2 -i 12 -a 2 -x {7.0 4.0 3 ------- null}
- -t 0.257626666666667 -s 1 -d 4 -p ack -e 40 -c 2 -i 12 -a 2 -x {7.0 4.0 3 ------- null}
h -t 0.257626666666667 -s 1 -d 4 -p ack -e 40 -c 2 -i 12 -a 2 -x {7.0 4.0 -1 ------- null}
r -t 0.26096 -s 7 -d 2 -p ack -e 40 -c 2 -i 15 -a 2 -x {7.0 4.0 4 ------- null}
+ -t 0.26096 -s 2 -d 1 -p ack -e 40 -c 2 -i 15 -a 2 -x {7.0 4.0 4 ------- null}
- -t 0.26096 -s 2 -d 1 -p ack -e 40 -c 2 -i 15 -a 2 -x {7.0 4.0 4 ------- null}
h -t 0.26096 -s 2 -d 1 -p ack -e 40 -c 2 -i 15 -a 2 -x {7.0 4.0 -1 ------- null}
r -t 0.261173333333333 -s 5 -d 2 -p tcp -e 1040 -c 3 -i 13 -a 3 -x {5.0 6.2 1 ------- null}
+ -t 0.261173333333333 -s 2 -d 1 -p tcp -e 1040 -c 3 -i 13 -a 3 -x {5.0 6.2 1 ------- null}
- -t 0.261173333333333 -s 2 -d 1 -p tcp -e 1040 -c 3 -i 13 -a 3 -x {5.0 6.2 1 ------- null}
h -t 0.261173333333333 -s 2 -d 1 -p tcp -e 1040 -c 3 -i 13 -a 3 -x {5.0 6.2 -1 ------- null}
r -t 0.262053333333333 -s 2 -d 7 -p tcp -e 1040 -c 2 -i 10 -a 2 -x {4.0 7.0 6 ------- null}
+ -t 0.262053333333333 -s 7 -d 2 -p ack -e 40 -c 2 -i 17 -a 2 -x {7.0 4.0 6 ------- null}
- -t 0.262053333333333 -s 7 -d 2 -p ack -e 40 -c 2 -i 17 -a 2 -x {7.0 4.0 6 ------- null}
h -t 0.262053333333333 -s 7 -d 2 -p ack -e 40 -c 2 -i 17 -a 2 -x {7.0 4.0 -1 ------- null}
r -t 0.263173333333333 -s 2 -d 1 -p ack -e 40 -c 2 -i 15 -a 2 -x {7.0 4.0 4 ------- null}
+ -t 0.263173333333333 -s 1 -d 4 -p ack -e 40 -c 2 -i 15 -a 2 -x {7.0 4.0 4 ------- null}
- -t 0.263173333333333 -s 1 -d 4 -p ack -e 40 -c 2 -i 15 -a 2 -x {7.0 4.0 4 ------- null}
h -t 0.263173333333333 -s 1 -d 4 -p ack -e 40 -c 2 -i 15 -a 2 -x {7.0 4.0 -1 ------- null}
r -t 0.26672 -s 5 -d 2 -p tcp -e 1040 -c 3 -i 14 -a 3 -x {5.0 6.2 2 ------- null}
+ -t 0.26672 -s 2 -d 1 -p tcp -e 1040 -c 3 -i 14 -a 3 -x {5.0 6.2 2 ------- null}
r -t 0.26672 -s 7 -d 2 -p ack -e 40 -c 2 -i 16 -a 2 -x {7.0 4.0 5 ------- null}
+ -t 0.26672 -s 2 -d 1 -p ack -e 40 -c 2 -i 16 -a 2 -x {7.0 4.0 5 ------- null}
- -t 0.26672 -s 2 -d 1 -p tcp -e 1040 -c 3 -i 14 -a 3 -x {5.0 6.2 2 ------- null}
h -t 0.26672 -s 2 -d 1 -p tcp -e 1040 -c 3 -i 14 -a 3 -x {5.0 6.2 -1 ------- null}
r -t 0.26784 -s 1 -d 4 -p ack -e 40 -c 2 -i 12 -a 2 -x {7.0 4.0 3 ------- null}
+ -t 0.26784 -s 4 -d 1 -p tcp -e 1040 -c 2 -i 18 -a 2 -x {4.0 7.0 7 ------- null}
- -t 0.26784 -s 4 -d 1 -p tcp -e 1040 -c 2 -i 18 -a 2 -x {4.0 7.0 7 ------- null}
h -t 0.26784 -s 4 -d 1 -p tcp -e 1040 -c 2 -i 18 -a 2 -x {4.0 7.0 -1 ------- null}
+ -t 0.26784 -s 4 -d 1 -p tcp -e 1040 -c 2 -i 19 -a 2 -x {4.0 7.0 8 ------- null}
r -t 0.26872 -s 2 -d 1 -p tcp -e 1040 -c 3 -i 13 -a 3 -x {5.0 6.2 1 ------- null}
+ -t 0.26872 -s 1 -d 6 -p tcp -e 1040 -c 3 -i 13 -a 3 -x {5.0 6.2 1 ------- null}
- -t 0.26872 -s 1 -d 6 -p tcp -e 1040 -c 3 -i 13 -a 3 -x {5.0 6.2 1 ------- null}
h -t 0.26872 -s 1 -d 6 -p tcp -e 1040 -c 3 -i 13 -a 3 -x {5.0 6.2 -1 ------- null}
- -t 0.272266666666667 -s 2 -d 1 -p ack -e 40 -c 2 -i 16 -a 2 -x {7.0 4.0 5 ------- null}
h -t 0.272266666666667 -s 2 -d 1 -p ack -e 40 -c 2 -i 16 -a 2 -x {7.0 4.0 -1 ------- null}
r -t 0.272266666666667 -s 7 -d 2 -p ack -e 40 -c 2 -i 17 -a 2 -x {7.0 4.0 6 ------- null}
+ -t 0.272266666666667 -s 2 -d 1 -p ack -e 40 -c 2 -i 17 -a 2 -x {7.0 4.0 6 ------- null}
- -t 0.27248 -s 2 -d 1 -p ack -e 40 -c 2 -i 17 -a 2 -x {7.0 4.0 6 ------- null}
h -t 0.27248 -s 2 -d 1 -p ack -e 40 -c 2 -i 17 -a 2 -x {7.0 4.0 -1 ------- null}
- -t 0.273386666666667 -s 4 -d 1 -p tcp -e 1040 -c 2 -i 19 -a 2 -x {4.0 7.0 8 ------- null}
h -t 0.273386666666667 -s 4 -d 1 -p tcp -e 1040 -c 2 -i 19 -a 2 -x {4.0 7.0 -1 ------- null}
r -t 0.273386666666667 -s 1 -d 4 -p ack -e 40 -c 2 -i 15 -a 2 -x {7.0 4.0 4 ------- null}
+ -t 0.273386666666667 -s 4 -d 1 -p tcp -e 1040 -c 2 -i 20 -a 2 -x {4.0 7.0 9 ------- null}
+ -t 0.273386666666667 -s 4 -d 1 -p tcp -e 1040 -c 2 -i 21 -a 2 -x {4.0 7.0 10 ------- null}
r -t 0.274266666666667 -s 2 -d 1 -p tcp -e 1040 -c 3 -i 14 -a 3 -x {5.0 6.2 2 ------- null}
+ -t 0.274266666666667 -s 1 -d 6 -p tcp -e 1040 -c 3 -i 14 -a 3 -x {5.0 6.2 2 ------- null}
- -t 0.274266666666667 -s 1 -d 6 -p tcp -e 1040 -c 3 -i 14 -a 3 -x {5.0 6.2 2 ------- null}
h -t 0.274266666666667 -s 1 -d 6 -p tcp -e 1040 -c 3 -i 14 -a 3 -x {5.0 6.2 -1 ------- null}
r -t 0.27448 -s 2 -d 1 -p ack -e 40 -c 2 -i 16 -a 2 -x {7.0 4.0 5 ------- null}
+ -t 0.27448 -s 1 -d 4 -p ack -e 40 -c 2 -i 16 -a 2 -x {7.0 4.0 5 ------- null}
- -t 0.27448 -s 1 -d 4 -p ack -e 40 -c 2 -i 16 -a 2 -x {7.0 4.0 5 ------- null}
h -t 0.27448 -s 1 -d 4 -p ack -e 40 -c 2 -i 16 -a 2 -x {7.0 4.0 -1 ------- null}
r -t 0.274693333333333 -s 2 -d 1 -p ack -e 40 -c 2 -i 17 -a 2 -x {7.0 4.0 6 ------- null}
+ -t 0.274693333333333 -s 1 -d 4 -p ack -e 40 -c 2 -i 17 -a 2 -x {7.0 4.0 6 ------- null}
- -t 0.274693333333333 -s 1 -d 4 -p ack -e 40 -c 2 -i 17 -a 2 -x {7.0 4.0 6 ------- null}
h -t 0.274693333333333 -s 1 -d 4 -p ack -e 40 -c 2 -i 17 -a 2 -x {7.0 4.0 -1 ------- null}
- -t 0.278933333333333 -s 4 -d 1 -p tcp -e 1040 -c 2 -i 20 -a 2 -x {4.0 7.0 9 ------- null}
h -t 0.278933333333333 -s 4 -d 1 -p tcp -e 1040 -c 2 -i 20 -a 2 -x {4.0 7.0 -1 ------- null}
r -t 0.283386666666667 -s 4 -d 1 -p tcp -e 1040 -c 2 -i 18 -a 2 -x {4.0 7.0 7 ------- null}
+ -t 0.283386666666667 -s 1 -d 2 -p tcp -e 1040 -c 2 -i 18 -a 2 -x {4.0 7.0 7 ------- null}
- -t 0.283386666666667 -s 1 -d 2 -p tcp -e 1040 -c 2 -i 18 -a 2 -x {4.0 7.0 7 ------- null}
h -t 0.283386666666667 -s 1 -d 2 -p tcp -e 1040 -c 2 -i 18 -a 2 -x {4.0 7.0 -1 ------- null}
r -t 0.284266666666667 -s 1 -d 6 -p tcp -e 1040 -c 3 -i 13 -a 3 -x {5.0 6.2 1 ------- null}
+ -t 0.284266666666667 -s 6 -d 1 -p ack -e 40 -c 3 -i 22 -a 3 -x {6.2 5.0 1 ------- null}
- -t 0.284266666666667 -s 6 -d 1 -p ack -e 40 -c 3 -i 22 -a 3 -x {6.2 5.0 1 ------- null}
h -t 0.284266666666667 -s 6 -d 1 -p ack -e 40 -c 3 -i 22 -a 3 -x {6.2 5.0 -1 ------- null}
- -t 0.28448 -s 4 -d 1 -p tcp -e 1040 -c 2 -i 21 -a 2 -x {4.0 7.0 10 ------- null}
h -t 0.28448 -s 4 -d 1 -p tcp -e 1040 -c 2 -i 21 -a 2 -x {4.0 7.0 -1 ------- null}
r -t 0.284693333333333 -s 1 -d 4 -p ack -e 40 -c 2 -i 16 -a 2 -x {7.0 4.0 5 ------- null}
+ -t 0.284693333333333 -s 4 -d 1 -p tcp -e 1040 -c 2 -i 23 -a 2 -x {4.0 7.0 11 ------- null}
+ -t 0.284693333333333 -s 4 -d 1 -p tcp -e 1040 -c 2 -i 24 -a 2 -x {4.0 7.0 12 ------- null}
r -t 0.284906666666667 -s 1 -d 4 -p ack -e 40 -c 2 -i 17 -a 2 -x {7.0 4.0 6 ------- null}
+ -t 0.284906666666667 -s 4 -d 1 -p tcp -e 1040 -c 2 -i 25 -a 2 -x {4.0 7.0 13 ------- null}
+ -t 0.284906666666667 -s 4 -d 1 -p tcp -e 1040 -c 2 -i 26 -a 2 -x {4.0 7.0 14 ------- null}
r -t 0.288933333333333 -s 4 -d 1 -p tcp -e 1040 -c 2 -i 19 -a 2 -x {4.0 7.0 8 ------- null}
+ -t 0.288933333333333 -s 1 -d 2 -p tcp -e 1040 -c 2 -i 19 -a 2 -x {4.0 7.0 8 ------- null}
- -t 0.288933333333333 -s 1 -d 2 -p tcp -e 1040 -c 2 -i 19 -a 2 -x {4.0 7.0 8 ------- null}
h -t 0.288933333333333 -s 1 -d 2 -p tcp -e 1040 -c 2 -i 19 -a 2 -x {4.0 7.0 -1 ------- null}
r -t 0.289813333333333 -s 1 -d 6 -p tcp -e 1040 -c 3 -i 14 -a 3 -x {5.0 6.2 2 ------- null}
+ -t 0.289813333333333 -s 6 -d 1 -p ack -e 40 -c 3 -i 27 -a 3 -x {6.2 5.0 2 ------- null}
- -t 0.289813333333333 -s 6 -d 1 -p ack -e 40 -c 3 -i 27 -a 3 -x {6.2 5.0 2 ------- null}
h -t 0.289813333333333 -s 6 -d 1 -p ack -e 40 -c 3 -i 27 -a 3 -x {6.2 5.0 -1 ------- null}
- -t 0.290026666666667 -s 4 -d 1 -p tcp -e 1040 -c 2 -i 23 -a 2 -x {4.0 7.0 11 ------- null}
h -t 0.290026666666667 -s 4 -d 1 -p tcp -e 1040 -c 2 -i 23 -a 2 -x {4.0 7.0 -1 ------- null}
r -t 0.290933333333333 -s 1 -d 2 -p tcp -e 1040 -c 2 -i 18 -a 2 -x {4.0 7.0 7 ------- null}
+ -t 0.290933333333333 -s 2 -d 7 -p tcp -e 1040 -c 2 -i 18 -a 2 -x {4.0 7.0 7 ------- null}
- -t 0.290933333333333 -s 2 -d 7 -p tcp -e 1040 -c 2 -i 18 -a 2 -x {4.0 7.0 7 ------- null}
h -t 0.290933333333333 -s 2 -d 7 -p tcp -e 1040 -c 2 -i 18 -a 2 -x {4.0 7.0 -1 ------- null}
r -t 0.29448 -s 4 -d 1 -p tcp -e 1040 -c 2 -i 20 -a 2 -x {4.0 7.0 9 ------- null}
+ -t 0.29448 -s 1 -d 2 -p tcp -e 1040 -c 2 -i 20 -a 2 -x {4.0 7.0 9 ------- null}
- -t 0.29448 -s 1 -d 2 -p tcp -e 1040 -c 2 -i 20 -a 2 -x {4.0 7.0 9 ------- null}
h -t 0.29448 -s 1 -d 2 -p tcp -e 1040 -c 2 -i 20 -a 2 -x {4.0 7.0 -1 ------- null}
r -t 0.29448 -s 6 -d 1 -p ack -e 40 -c 3 -i 22 -a 3 -x {6.2 5.0 1 ------- null}
+ -t 0.29448 -s 1 -d 2 -p ack -e 40 -c 3 -i 22 -a 3 -x {6.2 5.0 1 ------- null}
- -t 0.295573333333333 -s 4 -d 1 -p tcp -e 1040 -c 2 -i 24 -a 2 -x {4.0 7.0 12 ------- null}
h -t 0.295573333333333 -s 4 -d 1 -p tcp -e 1040 -c 2 -i 24 -a 2 -x {4.0 7.0 -1 ------- null}
r -t 0.29648 -s 1 -d 2 -p tcp -e 1040 -c 2 -i 19 -a 2 -x {4.0 7.0 8 ------- null}
+ -t 0.29648 -s 2 -d 7 -p tcp -e 1040 -c 2 -i 19 -a 2 -x {4.0 7.0 8 ------- null}
- -t 0.29648 -s 2 -d 7 -p tcp -e 1040 -c 2 -i 19 -a 2 -x {4.0 7.0 8 ------- null}
h -t 0.29648 -s 2 -d 7 -p tcp -e 1040 -c 2 -i 19 -a 2 -x {4.0 7.0 -1 ------- null}
r -t 0.300026666666667 -s 4 -d 1 -p tcp -e 1040 -c 2 -i 21 -a 2 -x {4.0 7.0 10 ------- null}
+ -t 0.300026666666667 -s 1 -d 2 -p tcp -e 1040 -c 2 -i 21 -a 2 -x {4.0 7.0 10 ------- null}
- -t 0.300026666666667 -s 1 -d 2 -p ack -e 40 -c 3 -i 22 -a 3 -x {6.2 5.0 1 ------- null}
h -t 0.300026666666667 -s 1 -d 2 -p ack -e 40 -c 3 -i 22 -a 3 -x {6.2 5.0 -1 ------- null}
r -t 0.300026666666667 -s 6 -d 1 -p ack -e 40 -c 3 -i 27 -a 3 -x {6.2 5.0 2 ------- null}
+ -t 0.300026666666667 -s 1 -d 2 -p ack -e 40 -c 3 -i 27 -a 3 -x {6.2 5.0 2 ------- null}
- -t 0.30024 -s 1 -d 2 -p tcp -e 1040 -c 2 -i 21 -a 2 -x {4.0 7.0 10 ------- null}
h -t 0.30024 -s 1 -d 2 -p tcp -e 1040 -c 2 -i 21 -a 2 -x {4.0 7.0 -1 ------- null}
- -t 0.30112 -s 4 -d 1 -p tcp -e 1040 -c 2 -i 25 -a 2 -x {4.0 7.0 13 ------- null}
h -t 0.30112 -s 4 -d 1 -p tcp -e 1040 -c 2 -i 25 -a 2 -x {4.0 7.0 -1 ------- null}
r -t 0.302026666666667 -s 1 -d 2 -p tcp -e 1040 -c 2 -i 20 -a 2 -x {4.0 7.0 9 ------- null}
+ -t 0.302026666666667 -s 2 -d 7 -p tcp -e 1040 -c 2 -i 20 -a 2 -x {4.0 7.0 9 ------- null}
- -t 0.302026666666667 -s 2 -d 7 -p tcp -e 1040 -c 2 -i 20 -a 2 -x {4.0 7.0 9 ------- null}
h -t 0.302026666666667 -s 2 -d 7 -p tcp -e 1040 -c 2 -i 20 -a 2 -x {4.0 7.0 -1 ------- null}
r -t 0.30224 -s 1 -d 2 -p ack -e 40 -c 3 -i 22 -a 3 -x {6.2 5.0 1 ------- null}
+ -t 0.30224 -s 2 -d 5 -p ack -e 40 -c 3 -i 22 -a 3 -x {6.2 5.0 1 ------- null}
- -t 0.30224 -s 2 -d 5 -p ack -e 40 -c 3 -i 22 -a 3 -x {6.2 5.0 1 ------- null}
h -t 0.30224 -s 2 -d 5 -p ack -e 40 -c 3 -i 22 -a 3 -x {6.2 5.0 -1 ------- null}
r -t 0.305573333333333 -s 4 -d 1 -p tcp -e 1040 -c 2 -i 23 -a 2 -x {4.0 7.0 11 ------- null}
+ -t 0.305573333333333 -s 1 -d 2 -p tcp -e 1040 -c 2 -i 23 -a 2 -x {4.0 7.0 11 ------- null}
- -t 0.305786666666667 -s 1 -d 2 -p ack -e 40 -c 3 -i 27 -a 3 -x {6.2 5.0 2 ------- null}
h -t 0.305786666666667 -s 1 -d 2 -p ack -e 40 -c 3 -i 27 -a 3 -x {6.2 5.0 -1 ------- null}
- -t 0.306 -s 1 -d 2 -p tcp -e 1040 -c 2 -i 23 -a 2 -x {4.0 7.0 11 ------- null}
h -t 0.306 -s 1 -d 2 -p tcp -e 1040 -c 2 -i 23 -a 2 -x {4.0 7.0 -1 ------- null}
r -t 0.30648 -s 2 -d 7 -p tcp -e 1040 -c 2 -i 18 -a 2 -x {4.0 7.0 7 ------- null}
+ -t 0.30648 -s 7 -d 2 -p ack -e 40 -c 2 -i 28 -a 2 -x {7.0 4.0 7 ------- null}
- -t 0.30648 -s 7 -d 2 -p ack -e 40 -c 2 -i 28 -a 2 -x {7.0 4.0 7 ------- null}
h -t 0.30648 -s 7 -d 2 -p ack -e 40 -c 2 -i 28 -a 2 -x {7.0 4.0 -1 ------- null}
- -t 0.306666666666667 -s 4 -d 1 -p tcp -e 1040 -c 2 -i 26 -a 2 -x {4.0 7.0 14 ------- null}
h -t 0.306666666666667 -s 4 -d 1 -p tcp -e 1040 -c 2 -i 26 -a 2 -x {4.0 7.0 -1 ------- null}
r -t 0.307786666666667 -s 1 -d 2 -p tcp -e 1040 -c 2 -i 21 -a 2 -x {4.0 7.0 10 ------- null}
+ -t 0.307786666666667 -s 2 -d 7 -p tcp -e 1040 -c 2 -i 21 -a 2 -x {4.0 7.0 10 ------- null}
- -t 0.307786666666667 -s 2 -d 7 -p tcp -e 1040 -c 2 -i 21 -a 2 -x {4.0 7.0 10 ------- null}
h -t 0.307786666666667 -s 2 -d 7 -p tcp -e 1040 -c 2 -i 21 -a 2 -x {4.0 7.0 -1 ------- null}
r -t 0.308 -s 1 -d 2 -p ack -e 40 -c 3 -i 27 -a 3 -x {6.2 5.0 2 ------- null}
+ -t 0.308 -s 2 -d 5 -p ack -e 40 -c 3 -i 27 -a 3 -x {6.2 5.0 2 ------- null}
- -t 0.308 -s 2 -d 5 -p ack -e 40 -c 3 -i 27 -a 3 -x {6.2 5.0 2 ------- null}
h -t 0.308 -s 2 -d 5 -p ack -e 40 -c 3 -i 27 -a 3 -x {6.2 5.0 -1 ------- null}
r -t 0.31112 -s 4 -d 1 -p tcp -e 1040 -c 2 -i 24 -a 2 -x {4.0 7.0 12 ------- null}
+ -t 0.31112 -s 1 -d 2 -p tcp -e 1040 -c 2 -i 24 -a 2 -x {4.0 7.0 12 ------- null}
- -t 0.311546666666667 -s 1 -d 2 -p tcp -e 1040 -c 2 -i 24 -a 2 -x {4.0 7.0 12 ------- null}
h -t 0.311546666666667 -s 1 -d 2 -p tcp -e 1040 -c 2 -i 24 -a 2 -x {4.0 7.0 -1 ------- null}
r -t 0.312026666666667 -s 2 -d 7 -p tcp -e 1040 -c 2 -i 19 -a 2 -x {4.0 7.0 8 ------- null}
+ -t 0.312026666666667 -s 7 -d 2 -p ack -e 40 -c 2 -i 29 -a 2 -x {7.0 4.0 8 ------- null}
- -t 0.312026666666667 -s 7 -d 2 -p ack -e 40 -c 2 -i 29 -a 2 -x {7.0 4.0 8 ------- null}
h -t 0.312026666666667 -s 7 -d 2 -p ack -e 40 -c 2 -i 29 -a 2 -x {7.0 4.0 -1 ------- null}
r -t 0.312453333333333 -s 2 -d 5 -p ack -e 40 -c 3 -i 22 -a 3 -x {6.2 5.0 1 ------- null}
+ -t 0.312453333333333 -s 5 -d 2 -p tcp -e 1040 -c 3 -i 30 -a 3 -x {5.0 6.2 3 ------- null}
- -t 0.312453333333333 -s 5 -d 2 -p tcp -e 1040 -c 3 -i 30 -a 3 -x {5.0 6.2 3 ------- null}
h -t 0.312453333333333 -s 5 -d 2 -p tcp -e 1040 -c 3 -i 30 -a 3 -x {5.0 6.2 -1 ------- null}
+ -t 0.312453333333333 -s 5 -d 2 -p tcp -e 1040 -c 3 -i 31 -a 3 -x {5.0 6.2 4 ------- null}
r -t 0.313546666666667 -s 1 -d 2 -p tcp -e 1040 -c 2 -i 23 -a 2 -x {4.0 7.0 11 ------- null}
+ -t 0.313546666666667 -s 2 -d 7 -p tcp -e 1040 -c 2 -i 23 -a 2 -x {4.0 7.0 11 ------- null}
- -t 0.313546666666667 -s 2 -d 7 -p tcp -e 1040 -c 2 -i 23 -a 2 -x {4.0 7.0 11 ------- null}
h -t 0.313546666666667 -s 2 -d 7 -p tcp -e 1040 -c 2 -i 23 -a 2 -x {4.0 7.0 -1 ------- null}
r -t 0.316666666666667 -s 4 -d 1 -p tcp -e 1040 -c 2 -i 25 -a 2 -x {4.0 7.0 13 ------- null}
+ -t 0.316666666666667 -s 1 -d 2 -p tcp -e 1040 -c 2 -i 25 -a 2 -x {4.0 7.0 13 ------- null}
r -t 0.316693333333333 -s 7 -d 2 -p ack -e 40 -c 2 -i 28 -a 2 -x {7.0 4.0 7 ------- null}
+ -t 0.316693333333333 -s 2 -d 1 -p ack -e 40 -c 2 -i 28 -a 2 -x {7.0 4.0 7 ------- null}
- -t 0.316693333333333 -s 2 -d 1 -p ack -e 40 -c 2 -i 28 -a 2 -x {7.0 4.0 7 ------- null}
h -t 0.316693333333333 -s 2 -d 1 -p ack -e 40 -c 2 -i 28 -a 2 -x {7.0 4.0 -1 ------- null}
- -t 0.317093333333333 -s 1 -d 2 -p tcp -e 1040 -c 2 -i 25 -a 2 -x {4.0 7.0 13 ------- null}
h -t 0.317093333333333 -s 1 -d 2 -p tcp -e 1040 -c 2 -i 25 -a 2 -x {4.0 7.0 -1 ------- null}
r -t 0.317573333333333 -s 2 -d 7 -p tcp -e 1040 -c 2 -i 20 -a 2 -x {4.0 7.0 9 ------- null}
+ -t 0.317573333333333 -s 7 -d 2 -p ack -e 40 -c 2 -i 32 -a 2 -x {7.0 4.0 9 ------- null}
- -t 0.317573333333333 -s 7 -d 2 -p ack -e 40 -c 2 -i 32 -a 2 -x {7.0 4.0 9 ------- null}
h -t 0.317573333333333 -s 7 -d 2 -p ack -e 40 -c 2 -i 32 -a 2 -x {7.0 4.0 -1 ------- null}