+ 0.1 4 1 tcp 40 ------- 2 4.0 7.0 0 0
- 0.1 4 1 tcp 40 ------- 2 4.0 7.0 0 0
r 0.110213 4 1 tcp 40 ------- 2 4.0 7.0 0 0
+ 0.110213 1 2 tcp 40 ------- 2 4.0 7.0 0 0
- 0.110213 1 2 tcp 40 ------- 2 4.0 7.0 0 0
r 0.112427 1 2 tcp 40 ------- 2 4.0 7.0 0 0
+ 0.112427 2 7 tcp 40 ------- 2 4.0 7.0 0 0
- 0.112427 2 7 tcp 40 ------- 2 4.0 7.0 0 0
r 0.12264 2 7 tcp 40 ------- 2 4.0 7.0 0 0
+ 0.12264 7 2 ack 40 ------- 2 7.0 4.0 0 1
- 0.12264 7 2 ack 40 ------- 2 7.0 4.0 0 1
r 0.132853 7 2 ack 40 ------- 2 7.0 4.0 0 1
+ 0.132853 2 1 ack 40 ------- 2 7.0 4.0 0 1
- 0.132853 2 1 ack 40 ------- 2 7.0 4.0 0 1
r 0.135067 2 1 ack 40 ------- 2 7.0 4.0 0 1
+ 0.135067 1 4 ack 40 ------- 2 7.0 4.0 0 1
- 0.135067 1 4 ack 40 ------- 2 7.0 4.0 0 1
r 0.14528 1 4 ack 40 ------- 2 7.0 4.0 0 1
+ 0.14528 4 1 tcp 1040 ------- 2 4.0 7.0 1 2
- 0.14528 4 1 tcp 1040 ------- 2 4.0 7.0 1 2
+ 0.14528 4 1 tcp 1040 ------- 2 4.0 7.0 2 3
- 0.150827 4 1 tcp 1040 ------- 2 4.0 7.0 2 3
r 0.160827 4 1 tcp 1040 ------- 2 4.0 7.0 1 2
+ 0.160827 1 2 tcp 1040 ------- 2 4.0 7.0 1 2
- 0.160827 1 2 tcp 1040 ------- 2 4.0 7.0 1 2
r 0.166373 4 1 tcp 1040 ------- 2 4.0 7.0 2 3
+ 0.166373 1 2 tcp 1040 ------- 2 4.0 7.0 2 3
- 0.166373 1 2 tcp 1040 ------- 2 4.0 7.0 2 3
r 0.168373 1 2 tcp 1040 ------- 2 4.0 7.0 1 2
+ 0.168373 2 7 tcp 1040 ------- 2 4.0 7.0 1 2
- 0.168373 2 7 tcp 1040 ------- 2 4.0 7.0 1 2
r 0.17392 1 2 tcp 1040 ------- 2 4.0 7.0 2 3
+ 0.17392 2 7 tcp 1040 ------- 2 4.0 7.0 2 3
- 0.17392 2 7 tcp 1040 ------- 2 4.0 7.0 2 3
r 0.18392 2 7 tcp 1040 ------- 2 4.0 7.0 1 2
+ 0.18392 7 2 ack 40 ------- 2 7.0 4.0 1 4
- 0.18392 7 2 ack 40 ------- 2 7.0 4.0 1 4
r 0.189467 2 7 tcp 1040 ------- 2 4.0 7.0 2 3
+ 0.189467 7 2 ack 40 ------- 2 7.0 4.0 2 5
- 0.189467 7 2 ack 40 ------- 2 7.0 4.0 2 5
r 0.194133 7 2 ack 40 ------- 2 7.0 4.0 1 4
+ 0.194133 2 1 ack 40 ------- 2 7.0 4.0 1 4
- 0.194133 2 1 ack 40 ------- 2 7.0 4.0 1 4
r 0.196347 2 1 ack 40 ------- 2 7.0 4.0 1 4
+ 0.196347 1 4 ack 40 ------- 2 7.0 4.0 1 4
- 0.196347 1 4 ack 40 ------- 2 7.0 4.0 1 4
r 0.19968 7 2 ack 40 ------- 2 7.0 4.0 2 5
+ 0.19968 2 1 ack 40 ------- 2 7.0 4.0 2 5
- 0.19968 2 1 ack 40 ------- 2 7.0 4.0 2 5
+ 0.2 5 2 tcp 40 ------- 3 5.0 6.2 0 6
- 0.2 5 2 tcp 40 ------- 3 5.0 6.2 0 6
r 0.201893 2 1 ack 40 ------- 2 7.0 4.0 2 5
+ 0.201893 1 4 ack 40 ------- 2 7.0 4.0 2 5
- 0.201893 1 4 ack 40 ------- 2 7.0 4.0 2 5
r 0.20656 1 4 ack 40 ------- 2 7.0 4.0 1 4
+ 0.20656 4 1 tcp 1040 ------- 2 4.0 7.0 3 7
- 0.20656 4 1 tcp 1040 ------- 2 4.0 7.0 3 7
+ 0.20656 4 1 tcp 1040 ------- 2 4.0 7.0 4 8
r 0.210213 5 2 tcp 40 ------- 3 5.0 6.2 0 6
+ 0.210213 2 1 tcp 40 ------- 3 5.0 6.2 0 6
- 0.210213 2 1 tcp 40 ------- 3 5.0 6.2 0 6
- 0.212107 4 1 tcp 1040 ------- 2 4.0 7.0 4 8
r 0.212107 1 4 ack 40 ------- 2 7.0 4.0 2 5
+ 0.212107 4 1 tcp 1040 ------- 2 4.0 7.0 5 9
+ 0.212107 4 1 tcp 1040 ------- 2 4.0 7.0 6 10
r 0.212427 2 1 tcp 40 ------- 3 5.0 6.2 0 6
+ 0.212427 1 6 tcp 40 ------- 3 5.0 6.2 0 6
- 0.212427 1 6 tcp 40 ------- 3 5.0 6.2 0 6
- 0.217653 4 1 tcp 1040 ------- 2 4.0 7.0 5 9
r 0.222107 4 1 tcp 1040 ------- 2 4.0 7.0 3 7
+ 0.222107 1 2 tcp 1040 ------- 2 4.0 7.0 3 7
- 0.222107 1 2 tcp 1040 ------- 2 4.0 7.0 3 7
r 0.22264 1 6 tcp 40 ------- 3 5.0 6.2 0 6
+ 0.22264 6 1 ack 40 ------- 3 6.2 5.0 0 11
- 0.22264 6 1 ack 40 ------- 3 6.2 5.0 0 11
- 0.2232 4 1 tcp 1040 ------- 2 4.0 7.0 6 10
r 0.227653 4 1 tcp 1040 ------- 2 4.0 7.0 4 8
+ 0.227653 1 2 tcp 1040 ------- 2 4.0 7.0 4 8
- 0.227653 1 2 tcp 1040 ------- 2 4.0 7.0 4 8
r 0.229653 1 2 tcp 1040 ------- 2 4.0 7.0 3 7
+ 0.229653 2 7 tcp 1040 ------- 2 4.0 7.0 3 7
- 0.229653 2 7 tcp 1040 ------- 2 4.0 7.0 3 7
r 0.232853 6 1 ack 40 ------- 3 6.2 5.0 0 11
+ 0.232853 1 2 ack 40 ------- 3 6.2 5.0 0 11
r 0.2332 4 1 tcp 1040 ------- 2 4.0 7.0 5 9
+ 0.2332 1 2 tcp 1040 ------- 2 4.0 7.0 5 9
- 0.2332 1 2 ack 40 ------- 3 6.2 5.0 0 11
- 0.233413 1 2 tcp 1040 ------- 2 4.0 7.0 5 9
r 0.2352 1 2 tcp 1040 ------- 2 4.0 7.0 4 8
+ 0.2352 2 7 tcp 1040 ------- 2 4.0 7.0 4 8
- 0.2352 2 7 tcp 1040 ------- 2 4.0 7.0 4 8
r 0.235413 1 2 ack 40 ------- 3 6.2 5.0 0 11
+ 0.235413 2 5 ack 40 ------- 3 6.2 5.0 0 11
- 0.235413 2 5 ack 40 ------- 3 6.2 5.0 0 11
r 0.238747 4 1 tcp 1040 ------- 2 4.0 7.0 6 10
+ 0.238747 1 2 tcp 1040 ------- 2 4.0 7.0 6 10
- 0.23896 1 2 tcp 1040 ------- 2 4.0 7.0 6 10
r 0.24096 1 2 tcp 1040 ------- 2 4.0 7.0 5 9
+ 0.24096 2 7 tcp 1040 ------- 2 4.0 7.0 5 9
- 0.24096 2 7 tcp 1040 ------- 2 4.0 7.0 5 9
r 0.2452 2 7 tcp 1040 ------- 2 4.0 7.0 3 7
+ 0.2452 7 2 ack 40 ------- 2 7.0 4.0 3 12
- 0.2452 7 2 ack 40 ------- 2 7.0 4.0 3 12
r 0.245627 2 5 ack 40 ------- 3 6.2 5.0 0 11
+ 0.245627 5 2 tcp 1040 ------- 3 5.0 6.2 1 13
- 0.245627 5 2 tcp 1040 ------- 3 5.0 6.2 1 13
+ 0.245627 5 2 tcp 1040 ------- 3 5.0 6.2 2 14
r 0.246507 1 2 tcp 1040 ------- 2 4.0 7.0 6 10
+ 0.246507 2 7 tcp 1040 ------- 2 4.0 7.0 6 10
- 0.246507 2 7 tcp 1040 ------- 2 4.0 7.0 6 10
r 0.250747 2 7 tcp 1040 ------- 2 4.0 7.0 4 8
+ 0.250747 7 2 ack 40 ------- 2 7.0 4.0 4 15
- 0.250747 7 2 ack 40 ------- 2 7.0 4.0 4 15
- 0.251173 5 2 tcp 1040 ------- 3 5.0 6.2 2 14
r 0.255413 7 2 ack 40 ------- 2 7.0 4.0 3 12
+ 0.255413 2 1 ack 40 ------- 2 7.0 4.0 3 12
- 0.255413 2 1 ack 40 ------- 2 7.0 4.0 3 12
r 0.256507 2 7 tcp 1040 ------- 2 4.0 7.0 5 9
+ 0.256507 7 2 ack 40 ------- 2 7.0 4.0 5 16
- 0.256507 7 2 ack 40 ------- 2 7.0 4.0 5 16
r 0.257627 2 1 ack 40 ------- 2 7.0 4.0 3 12
+ 0.257627 1 4 ack 40 ------- 2 7.0 4.0 3 12
- 0.257627 1 4 ack 40 ------- 2 7.0 4.0 3 12
r 0.26096 7 2 ack 40 ------- 2 7.0 4.0 4 15
+ 0.26096 2 1 ack 40 ------- 2 7.0 4.0 4 15
- 0.26096 2 1 ack 40 ------- 2 7.0 4.0 4 15
r 0.261173 5 2 tcp 1040 ------- 3 5.0 6.2 1 13
+ 0.261173 2 1 tcp 1040 ------- 3 5.0 6.2 1 13
- 0.261173 2 1 tcp 1040 ------- 3 5.0 6.2 1 13
r 0.262053 2 7 tcp 1040 ------- 2 4.0 7.0 6 10
+ 0.262053 7 2 ack 40 ------- 2 7.0 4.0 6 17
- 0.262053 7 2 ack 40 ------- 2 7.0 4.0 6 17
r 0.263173 2 1 ack 40 ------- 2 7.0 4.0 4 15
+ 0.263173 1 4 ack 40 ------- 2 7.0 4.0 4 15
- 0.263173 1 4 ack 40 ------- 2 7.0 4.0 4 15
r 0.26672 5 2 tcp 1040 ------- 3 5.0 6.2 2 14
+ 0.26672 2 1 tcp 1040 ------- 3 5.0 6.2 2 14
r 0.26672 7 2 ack 40 ------- 2 7.0 4.0 5 16
+ 0.26672 2 1 ack 40 ------- 2 7.0 4.0 5 16
- 0.26672 2 1 tcp 1040 ------- 3 5.0 6.2 2 14
r 0.26784 1 4 ack 40 ------- 2 7.0 4.0 3 12
+ 0.26784 4 1 tcp 1040 ------- 2 4.0 7.0 7 18
- 0.26784 4 1 tcp 1040 ------- 2 4.0 7.0 7 18
+ 0.26784 4 1 tcp 1040 ------- 2 4.0 7.0 8 19
r 0.26872 2 1 tcp 1040 ------- 3 5.0 6.2 1 13
+ 0.26872 1 6 tcp 1040 ------- 3 5.0 6.2 1 13
- 0.26872 1 6 tcp 1040 ------- 3 5.0 6.2 1 13
- 0.272267 2 1 ack 40 ------- 2 7.0 4.0 5 16
r 0.272267 7 2 ack 40 ------- 2 7.0 4.0 6 17
+ 0.272267 2 1 ack 40 ------- 2 7.0 4.0 6 17
- 0.27248 2 1 ack 40 ------- 2 7.0 4.0 6 17
- 0.273387 4 1 tcp 1040 ------- 2 4.0 7.0 8 19
r 0.273387 1 4 ack 40 ------- 2 7.0 4.0 4 15
+ 0.273387 4 1 tcp 1040 ------- 2 4.0 7.0 9 20
+ 0.273387 4 1 tcp 1040 ------- 2 4.0 7.0 10 21
r 0.274267 2 1 tcp 1040 ------- 3 5.0 6.2 2 14
+ 0.274267 1 6 tcp 1040 ------- 3 5.0 6.2 2 14
- 0.274267 1 6 tcp 1040 ------- 3 5.0 6.2 2 14
r 0.27448 2 1 ack 40 ------- 2 7.0 4.0 5 16
+ 0.27448 1 4 ack 40 ------- 2 7.0 4.0 5 16
- 0.27448 1 4 ack 40 ------- 2 7.0 4.0 5 16
r 0.274693 2 1 ack 40 ------- 2 7.0 4.0 6 17
+ 0.274693 1 4 ack 40 ------- 2 7.0 4.0 6 17
- 0.274693 1 4 ack 40 ------- 2 7.0 4.0 6 17
- 0.278933 4 1 tcp 1040 ------- 2 4.0 7.0 9 20
r 0.283387 4 1 tcp 1040 ------- 2 4.0 7.0 7 18
+ 0.283387 1 2 tcp 1040 ------- 2 4.0 7.0 7 18
- 0.283387 1 2 tcp 1040 ------- 2 4.0 7.0 7 18
r 0.284267 1 6 tcp 1040 ------- 3 5.0 6.2 1 13
+ 0.284267 6 1 ack 40 ------- 3 6.2 5.0 1 22
- 0.284267 6 1 ack 40 ------- 3 6.2 5.0 1 22
- 0.28448 4 1 tcp 1040 ------- 2 4.0 7.0 10 21
r 0.284693 1 4 ack 40 ------- 2 7.0 4.0 5 16
+ 0.284693 4 1 tcp 1040 ------- 2 4.0 7.0 11 23
+ 0.284693 4 1 tcp 1040 ------- 2 4.0 7.0 12 24
r 0.284907 1 4 ack 40 ------- 2 7.0 4.0 6 17
+ 0.284907 4 1 tcp 1040 ------- 2 4.0 7.0 13 25
+ 0.284907 4 1 tcp 1040 ------- 2 4.0 7.0 14 26
r 0.288933 4 1 tcp 1040 ------- 2 4.0 7.0 8 19
+ 0.288933 1 2 tcp 1040 ------- 2 4.0 7.0 8 19
- 0.288933 1 2 tcp 1040 ------- 2 4.0 7.0 8 19
r 0.289813 1 6 tcp 1040 ------- 3 5.0 6.2 2 14
+ 0.289813 6 1 ack 40 ------- 3 6.2 5.0 2 27
- 0.289813 6 1 ack 40 ------- 3 6.2 5.0 2 27
- 0.290027 4 1 tcp 1040 ------- 2 4.0 7.0 11 23
r 0.290933 1 2 tcp 1040 ------- 2 4.0 7.0 7 18
+ 0.290933 2 7 tcp 1040 ------- 2 4.0 7.0 7 18
- 0.290933 2 7 tcp 1040 ------- 2 4.0 7.0 7 18
r 0.29448 4 1 tcp 1040 ------- 2 4.0 7.0 9 20
+ 0.29448 1 2 tcp 1040 ------- 2 4.0 7.0 9 20
- 0.29448 1 2 tcp 1040 ------- 2 4.0 7.0 9 20
r 0.29448 6 1 ack 40 ------- 3 6.2 5.0 1 22
+ 0.29448 1 2 ack 40 ------- 3 6.2 5.0 1 22
- 0.295573 4 1 tcp 1040 ------- 2 4.0 7.0 12 24
r 0.29648 1 2 tcp 1040 ------- 2 4.0 7.0 8 19
+ 0.29648 2 7 tcp 1040 ------- 2 4.0 7.0 8 19
- 0.29648 2 7 tcp 1040 ------- 2 4.0 7.0 8 19
r 0.300027 4 1 tcp 1040 ------- 2 4.0 7.0 10 21
+ 0.300027 1 2 tcp 1040 ------- 2 4.0 7.0 10 21
- 0.300027 1 2 ack 40 ------- 3 6.2 5.0 1 22
r 0.300027 6 1 ack 40 ------- 3 6.2 5.0 2 27
+ 0.300027 1 2 ack 40 ------- 3 6.2 5.0 2 27
- 0.30024 1 2 tcp 1040 ------- 2 4.0 7.0 10 21
- 0.30112 4 1 tcp 1040 ------- 2 4.0 7.0 13 25
r 0.302027 1 2 tcp 1040 ------- 2 4.0 7.0 9 20
+ 0.302027 2 7 tcp 1040 ------- 2 4.0 7.0 9 20
- 0.302027 2 7 tcp 1040 ------- 2 4.0 7.0 9 20
r 0.30224 1 2 ack 40 ------- 3 6.2 5.0 1 22
+ 0.30224 2 5 ack 40 ------- 3 6.2 5.0 1 22
- 0.30224 2 5 ack 40 ------- 3 6.2 5.0 1 22
r 0.305573 4 1 tcp 1040 ------- 2 4.0 7.0 11 23
+ 0.305573 1 2 tcp 1040 ------- 2 4.0 7.0 11 23
- 0.305787 1 2 ack 40 ------- 3 6.2 5.0 2 27
- 0.306 1 2 tcp 1040 ------- 2 4.0 7.0 11 23
r 0.30648 2 7 tcp 1040 ------- 2 4.0 7.0 7 18
+ 0.30648 7 2 ack 40 ------- 2 7.0 4.0 7 28
- 0.30648 7 2 ack 40 ------- 2 7.0 4.0 7 28
- 0.306667 4 1 tcp 1040 ------- 2 4.0 7.0 14 26
r 0.307787 1 2 tcp 1040 ------- 2 4.0 7.0 10 21
+ 0.307787 2 7 tcp 1040 ------- 2 4.0 7.0 10 21
- 0.307787 2 7 tcp 1040 ------- 2 4.0 7.0 10 21
r 0.308 1 2 ack 40 ------- 3 6.2 5.0 2 27
+ 0.308 2 5 ack 40 ------- 3 6.2 5.0 2 27
- 0.308 2 5 ack 40 ------- 3 6.2 5.0 2 27
r 0.31112 4 1 tcp 1040 ------- 2 4.0 7.0 12 24
+ 0.31112 1 2 tcp 1040 ------- 2 4.0 7.0 12 24
- 0.311547 1 2 tcp 1040 ------- 2 4.0 7.0 12 24
r 0.312027 2 7 tcp 1040 ------- 2 4.0 7.0 8 19
+ 0.312027 7 2 ack 40 ------- 2 7.0 4.0 8 29
- 0.312027 7 2 ack 40 ------- 2 7.0 4.0 8 29
r 0.312453 2 5 ack 40 ------- 3 6.2 5.0 1 22
+ 0.312453 5 2 tcp 1040 ------- 3 5.0 6.2 3 30
- 0.312453 5 2 tcp 1040 ------- 3 5.0 6.2 3 30
+ 0.312453 5 2 tcp 1040 ------- 3 5.0 6.2 4 31
r 0.313547 1 2 tcp 1040 ------- 2 4.0 7.0 11 23
+ 0.313547 2 7 tcp 1040 ------- 2 4.0 7.0 11 23
- 0.313547 2 7 tcp 1040 ------- 2 4.0 7.0 11 23
r 0.316667 4 1 tcp 1040 ------- 2 4.0 7.0 13 25
+ 0.316667 1 2 tcp 1040 ------- 2 4.0 7.0 13 25
r 0.316693 7 2 ack 40 ------- 2 7.0 4.0 7 28
+ 0.316693 2 1 ack 40 ------- 2 7.0 4.0 7 28
- 0.316693 2 1 ack 40 ------- 2 7.0 4.0 7 28
- 0.317093 1 2 tcp 1040 ------- 2 4.0 7.0 13 25
r 0.317573 2 7 tcp 1040 ------- 2 4.0 7.0 9 20
+ 0.317573 7 2 ack 40 ------- 2 7.0 4.0 9 32
- 0.317573 7 2 ack 40 ------- 2 7.0 4.0 9 32
- 0.318 5 2 tcp 1040 ------- 3 5.0 6.2 4 31
r 0.318213 2 5 ack 40 ------- 3 6.2 5.0 2 27
+ 0.318213 5 2 tcp 1040 ------- 3 5.0 6.2 5 33
+ 0.318213 5 2 tcp 1040 ------- 3 5.0 6.2 6 34
r 0.318907 2 1 ack 40 ------- 2 7.0 4.0 7 28
+ 0.318907 1 4 ack 40 ------- 2 7.0 4.0 7 28
- 0.318907 1 4 ack 40 ------- 2 7.0 4.0 7 28
r 0.319093 1 2 tcp 1040 ------- 2 4.0 7.0 12 24
+ 0.319093 2 7 tcp 1040 ------- 2 4.0 7.0 12 24
- 0.319093 2 7 tcp 1040 ------- 2 4.0 7.0 12 24
r 0.322213 4 1 tcp 1040 ------- 2 4.0 7.0 14 26
+ 0.322213 1 2 tcp 1040 ------- 2 4.0 7.0 14 26
r 0.32224 7 2 ack 40 ------- 2 7.0 4.0 8 29
+ 0.32224 2 1 ack 40 ------- 2 7.0 4.0 8 29
- 0.32224 2 1 ack 40 ------- 2 7.0 4.0 8 29
- 0.32264 1 2 tcp 1040 ------- 2 4.0 7.0 14 26
r 0.323333 2 7 tcp 1040 ------- 2 4.0 7.0 10 21
+ 0.323333 7 2 ack 40 ------- 2 7.0 4.0 10 35
- 0.323333 7 2 ack 40 ------- 2 7.0 4.0 10 35
- 0.323547 5 2 tcp 1040 ------- 3 5.0 6.2 5 33
r 0.324453 2 1 ack 40 ------- 2 7.0 4.0 8 29
+ 0.324453 1 4 ack 40 ------- 2 7.0 4.0 8 29
- 0.324453 1 4 ack 40 ------- 2 7.0 4.0 8 29
r 0.32464 1 2 tcp 1040 ------- 2 4.0 7.0 13 25
+ 0.32464 2 7 tcp 1040 ------- 2 4.0 7.0 13 25
- 0.32464 2 7 tcp 1040 ------- 2 4.0 7.0 13 25
r 0.327787 7 2 ack 40 ------- 2 7.0 4.0 9 32
+ 0.327787 2 1 ack 40 ------- 2 7.0 4.0 9 32
- 0.327787 2 1 ack 40 ------- 2 7.0 4.0 9 32
r 0.328 5 2 tcp 1040 ------- 3 5.0 6.2 3 30
+ 0.328 2 1 tcp 1040 ------- 3 5.0 6.2 3 30
- 0.328 2 1 tcp 1040 ------- 3 5.0 6.2 3 30
r 0.329093 2 7 tcp 1040 ------- 2 4.0 7.0 11 23
+ 0.329093 7 2 ack 40 ------- 2 7.0 4.0 11 36
- 0.329093 7 2 ack 40 ------- 2 7.0 4.0 11 36
- 0.329093 5 2 tcp 1040 ------- 3 5.0 6.2 6 34
r 0.32912 1 4 ack 40 ------- 2 7.0 4.0 7 28
+ 0.32912 4 1 tcp 1040 ------- 2 4.0 7.0 15 37
- 0.32912 4 1 tcp 1040 ------- 2 4.0 7.0 15 37
+ 0.32912 4 1 tcp 1040 ------- 2 4.0 7.0 16 38
r 0.33 2 1 ack 40 ------- 2 7.0 4.0 9 32
+ 0.33 1 4 ack 40 ------- 2 7.0 4.0 9 32
- 0.33 1 4 ack 40 ------- 2 7.0 4.0 9 32
r 0.330187 1 2 tcp 1040 ------- 2 4.0 7.0 14 26
+ 0.330187 2 7 tcp 1040 ------- 2 4.0 7.0 14 26
- 0.330187 2 7 tcp 1040 ------- 2 4.0 7.0 14 26
r 0.333547 5 2 tcp 1040 ------- 3 5.0 6.2 4 31
+ 0.333547 2 1 tcp 1040 ------- 3 5.0 6.2 4 31
r 0.333547 7 2 ack 40 ------- 2 7.0 4.0 10 35
+ 0.333547 2 1 ack 40 ------- 2 7.0 4.0 10 35
- 0.333547 2 1 tcp 1040 ------- 3 5.0 6.2 4 31
r 0.33464 2 7 tcp 1040 ------- 2 4.0 7.0 12 24
+ 0.33464 7 2 ack 40 ------- 2 7.0 4.0 12 39
- 0.33464 7 2 ack 40 ------- 2 7.0 4.0 12 39
r 0.334667 1 4 ack 40 ------- 2 7.0 4.0 8 29
+ 0.334667 4 1 tcp 1040 ------- 2 4.0 7.0 17 40
+ 0.334667 4 1 tcp 1040 ------- 2 4.0 7.0 18 41
- 0.334667 4 1 tcp 1040 ------- 2 4.0 7.0 16 38
r 0.335547 2 1 tcp 1040 ------- 3 5.0 6.2 3 30
+ 0.335547 1 6 tcp 1040 ------- 3 5.0 6.2 3 30
- 0.335547 1 6 tcp 1040 ------- 3 5.0 6.2 3 30
r 0.339093 5 2 tcp 1040 ------- 3 5.0 6.2 5 33
+ 0.339093 2 1 tcp 1040 ------- 3 5.0 6.2 5 33
- 0.339093 2 1 ack 40 ------- 2 7.0 4.0 10 35
r 0.339307 7 2 ack 40 ------- 2 7.0 4.0 11 36
+ 0.339307 2 1 ack 40 ------- 2 7.0 4.0 11 36
- 0.339307 2 1 tcp 1040 ------- 3 5.0 6.2 5 33
r 0.340187 2 7 tcp 1040 ------- 2 4.0 7.0 13 25
+ 0.340187 7 2 ack 40 ------- 2 7.0 4.0 13 42
- 0.340187 7 2 ack 40 ------- 2 7.0 4.0 13 42
r 0.340213 1 4 ack 40 ------- 2 7.0 4.0 9 32
+ 0.340213 4 1 tcp 1040 ------- 2 4.0 7.0 19 43
+ 0.340213 4 1 tcp 1040 ------- 2 4.0 7.0 20 44
- 0.340213 4 1 tcp 1040 ------- 2 4.0 7.0 17 40
r 0.341093 2 1 tcp 1040 ------- 3 5.0 6.2 4 31
+ 0.341093 1 6 tcp 1040 ------- 3 5.0 6.2 4 31
- 0.341093 1 6 tcp 1040 ------- 3 5.0 6.2 4 31
r 0.341307 2 1 ack 40 ------- 2 7.0 4.0 10 35
+ 0.341307 1 4 ack 40 ------- 2 7.0 4.0 10 35
- 0.341307 1 4 ack 40 ------- 2 7.0 4.0 10 35
r 0.34464 5 2 tcp 1040 ------- 3 5.0 6.2 6 34
+ 0.34464 2 1 tcp 1040 ------- 3 5.0 6.2 6 34
r 0.344667 4 1 tcp 1040 ------- 2 4.0 7.0 15 37
+ 0.344667 1 2 tcp 1040 ------- 2 4.0 7.0 15 37
- 0.344667 1 2 tcp 1040 ------- 2 4.0 7.0 15 37
r 0.344853 7 2 ack 40 ------- 2 7.0 4.0 12 39
+ 0.344853 2 1 ack 40 ------- 2 7.0 4.0 12 39
- 0.344853 2 1 ack 40 ------- 2 7.0 4.0 11 36
- 0.345067 2 1 tcp 1040 ------- 3 5.0 6.2 6 34
r 0.345733 2 7 tcp 1040 ------- 2 4.0 7.0 14 26
+ 0.345733 7 2 ack 40 ------- 2 7.0 4.0 14 45
- 0.345733 7 2 ack 40 ------- 2 7.0 4.0 14 45
- 0.34576 4 1 tcp 1040 ------- 2 4.0 7.0 18 41
r 0.346853 2 1 tcp 1040 ------- 3 5.0 6.2 5 33
+ 0.346853 1 6 tcp 1040 ------- 3 5.0 6.2 5 33
- 0.346853 1 6 tcp 1040 ------- 3 5.0 6.2 5 33
r 0.347067 2 1 ack 40 ------- 2 7.0 4.0 11 36
+ 0.347067 1 4 ack 40 ------- 2 7.0 4.0 11 36
- 0.347067 1 4 ack 40 ------- 2 7.0 4.0 11 36
r 0.350213 4 1 tcp 1040 ------- 2 4.0 7.0 16 38
+ 0.350213 1 2 tcp 1040 ------- 2 4.0 7.0 16 38
- 0.350213 1 2 tcp 1040 ------- 2 4.0 7.0 16 38
r 0.3504 7 2 ack 40 ------- 2 7.0 4.0 13 42
+ 0.3504 2 1 ack 40 ------- 2 7.0 4.0 13 42
- 0.350613 2 1 ack 40 ------- 2 7.0 4.0 12 39
- 0.350827 2 1 ack 40 ------- 2 7.0 4.0 13 42
r 0.351093 1 6 tcp 1040 ------- 3 5.0 6.2 3 30
+ 0.351093 6 1 ack 40 ------- 3 6.2 5.0 3 46
- 0.351093 6 1 ack 40 ------- 3 6.2 5.0 3 46
- 0.351307 4 1 tcp 1040 ------- 2 4.0 7.0 19 43
r 0.35152 1 4 ack 40 ------- 2 7.0 4.0 10 35
+ 0.35152 4 1 tcp 1040 ------- 2 4.0 7.0 21 47
+ 0.35152 4 1 tcp 1040 ------- 2 4.0 7.0 22 48
r 0.352213 1 2 tcp 1040 ------- 2 4.0 7.0 15 37
+ 0.352213 2 7 tcp 1040 ------- 2 4.0 7.0 15 37
- 0.352213 2 7 tcp 1040 ------- 2 4.0 7.0 15 37
r 0.352613 2 1 tcp 1040 ------- 3 5.0 6.2 6 34
+ 0.352613 1 6 tcp 1040 ------- 3 5.0 6.2 6 34
- 0.352613 1 6 tcp 1040 ------- 3 5.0 6.2 6 34
r 0.352827 2 1 ack 40 ------- 2 7.0 4.0 12 39
+ 0.352827 1 4 ack 40 ------- 2 7.0 4.0 12 39
- 0.352827 1 4 ack 40 ------- 2 7.0 4.0 12 39
r 0.35304 2 1 ack 40 ------- 2 7.0 4.0 13 42
+ 0.35304 1 4 ack 40 ------- 2 7.0 4.0 13 42
- 0.35304 1 4 ack 40 ------- 2 7.0 4.0 13 42
r 0.35576 4 1 tcp 1040 ------- 2 4.0 7.0 17 40
+ 0.35576 1 2 tcp 1040 ------- 2 4.0 7.0 17 40
- 0.35576 1 2 tcp 1040 ------- 2 4.0 7.0 17 40
r 0.355947 7 2 ack 40 ------- 2 7.0 4.0 14 45
+ 0.355947 2 1 ack 40 ------- 2 7.0 4.0 14 45
- 0.355947 2 1 ack 40 ------- 2 7.0 4.0 14 45
r 0.35664 1 6 tcp 1040 ------- 3 5.0 6.2 4 31
+ 0.35664 6 1 ack 40 ------- 3 6.2 5.0 4 49
- 0.35664 6 1 ack 40 ------- 3 6.2 5.0 4 49
- 0.356853 4 1 tcp 1040 ------- 2 4.0 7.0 20 44
r 0.35728 1 4 ack 40 ------- 2 7.0 4.0 11 36
+ 0.35728 4 1 tcp 1040 ------- 2 4.0 7.0 23 50
+ 0.35728 4 1 tcp 1040 ------- 2 4.0 7.0 24 51
r 0.35776 1 2 tcp 1040 ------- 2 4.0 7.0 16 38
+ 0.35776 2 7 tcp 1040 ------- 2 4.0 7.0 16 38
- 0.35776 2 7 tcp 1040 ------- 2 4.0 7.0 16 38
r 0.35816 2 1 ack 40 ------- 2 7.0 4.0 14 45
+ 0.35816 1 4 ack 40 ------- 2 7.0 4.0 14 45
- 0.35816 1 4 ack 40 ------- 2 7.0 4.0 14 45
r 0.361307 4 1 tcp 1040 ------- 2 4.0 7.0 18 41
+ 0.361307 1 2 tcp 1040 ------- 2 4.0 7.0 18 41
r 0.361307 6 1 ack 40 ------- 3 6.2 5.0 3 46
+ 0.361307 1 2 ack 40 ------- 3 6.2 5.0 3 46
- 0.361307 1 2 tcp 1040 ------- 2 4.0 7.0 18 41
r 0.3624 1 6 tcp 1040 ------- 3 5.0 6.2 5 33
+ 0.3624 6 1 ack 40 ------- 3 6.2 5.0 5 52
- 0.3624 6 1 ack 40 ------- 3 6.2 5.0 5 52
- 0.3624 4 1 tcp 1040 ------- 2 4.0 7.0 21 47
r 0.36304 1 4 ack 40 ------- 2 7.0 4.0 12 39
+ 0.36304 4 1 tcp 1040 ------- 2 4.0 7.0 25 53
+ 0.36304 4 1 tcp 1040 ------- 2 4.0 7.0 26 54
r 0.363253 1 4 ack 40 ------- 2 7.0 4.0 13 42
+ 0.363253 4 1 tcp 1040 ------- 2 4.0 7.0 27 55
+ 0.363253 4 1 tcp 1040 ------- 2 4.0 7.0 28 56
r 0.363307 1 2 tcp 1040 ------- 2 4.0 7.0 17 40
+ 0.363307 2 7 tcp 1040 ------- 2 4.0 7.0 17 40
- 0.363307 2 7 tcp 1040 ------- 2 4.0 7.0 17 40
r 0.366853 4 1 tcp 1040 ------- 2 4.0 7.0 19 43
+ 0.366853 1 2 tcp 1040 ------- 2 4.0 7.0 19 43
r 0.366853 6 1 ack 40 ------- 3 6.2 5.0 4 49
+ 0.366853 1 2 ack 40 ------- 3 6.2 5.0 4 49
- 0.366853 1 2 ack 40 ------- 3 6.2 5.0 3 46
- 0.367067 1 2 tcp 1040 ------- 2 4.0 7.0 19 43
r 0.36776 2 7 tcp 1040 ------- 2 4.0 7.0 15 37
+ 0.36776 7 2 ack 40 ------- 2 7.0 4.0 15 57
- 0.36776 7 2 ack 40 ------- 2 7.0 4.0 15 57
- 0.367947 4 1 tcp 1040 ------- 2 4.0 7.0 22 48
r 0.36816 1 6 tcp 1040 ------- 3 5.0 6.2 6 34
+ 0.36816 6 1 ack 40 ------- 3 6.2 5.0 6 58
- 0.36816 6 1 ack 40 ------- 3 6.2 5.0 6 58
r 0.368373 1 4 ack 40 ------- 2 7.0 4.0 14 45
+ 0.368373 4 1 tcp 1040 ------- 2 4.0 7.0 29 59
+ 0.368373 4 1 tcp 1040 ------- 2 4.0 7.0 30 60
r 0.368853 1 2 tcp 1040 ------- 2 4.0 7.0 18 41
+ 0.368853 2 7 tcp 1040 ------- 2 4.0 7.0 18 41
- 0.368853 2 7 tcp 1040 ------- 2 4.0 7.0 18 41
r 0.369067 1 2 ack 40 ------- 3 6.2 5.0 3 46
+ 0.369067 2 5 ack 40 ------- 3 6.2 5.0 3 46
- 0.369067 2 5 ack 40 ------- 3 6.2 5.0 3 46
r 0.3724 4 1 tcp 1040 ------- 2 4.0 7.0 20 44
+ 0.3724 1 2 tcp 1040 ------- 2 4.0 7.0 20 44
r 0.372613 6 1 ack 40 ------- 3 6.2 5.0 5 52
+ 0.372613 1 2 ack 40 ------- 3 6.2 5.0 5 52
- 0.372613 1 2 ack 40 ------- 3 6.2 5.0 4 49
- 0.372827 1 2 tcp 1040 ------- 2 4.0 7.0 20 44
r 0.373307 2 7 tcp 1040 ------- 2 4.0 7.0 16 38
+ 0.373307 7 2 ack 40 ------- 2 7.0 4.0 16 61
- 0.373307 7 2 ack 40 ------- 2 7.0 4.0 16 61
- 0.373493 4 1 tcp 1040 ------- 2 4.0 7.0 23 50
r 0.374613 1 2 tcp 1040 ------- 2 4.0 7.0 19 43
+ 0.374613 2 7 tcp 1040 ------- 2 4.0 7.0 19 43
- 0.374613 2 7 tcp 1040 ------- 2 4.0 7.0 19 43
r 0.374827 1 2 ack 40 ------- 3 6.2 5.0 4 49
+ 0.374827 2 5 ack 40 ------- 3 6.2 5.0 4 49
- 0.374827 2 5 ack 40 ------- 3 6.2 5.0 4 49
r 0.377947 4 1 tcp 1040 ------- 2 4.0 7.0 21 47
+ 0.377947 1 2 tcp 1040 ------- 2 4.0 7.0 21 47
r 0.377973 7 2 ack 40 ------- 2 7.0 4.0 15 57
+ 0.377973 2 1 ack 40 ------- 2 7.0 4.0 15 57
- 0.377973 2 1 ack 40 ------- 2 7.0 4.0 15 57
r 0.378373 6 1 ack 40 ------- 3 6.2 5.0 6 58
+ 0.378373 1 2 ack 40 ------- 3 6.2 5.0 6 58
- 0.378373 1 2 ack 40 ------- 3 6.2 5.0 5 52
- 0.378587 1 2 tcp 1040 ------- 2 4.0 7.0 21 47
r 0.378853 2 7 tcp 1040 ------- 2 4.0 7.0 17 40
+ 0.378853 7 2 ack 40 ------- 2 7.0 4.0 17 62
- 0.378853 7 2 ack 40 ------- 2 7.0 4.0 17 62
- 0.37904 4 1 tcp 1040 ------- 2 4.0 7.0 24 51
r 0.37928 2 5 ack 40 ------- 3 6.2 5.0 3 46
+ 0.37928 5 2 tcp 1040 ------- 3 5.0 6.2 7 63
- 0.37928 5 2 tcp 1040 ------- 3 5.0 6.2 7 63
+ 0.37928 5 2 tcp 1040 ------- 3 5.0 6.2 8 64
r 0.380187 2 1 ack 40 ------- 2 7.0 4.0 15 57
+ 0.380187 1 4 ack 40 ------- 2 7.0 4.0 15 57
- 0.380187 1 4 ack 40 ------- 2 7.0 4.0 15 57
r 0.380373 1 2 tcp 1040 ------- 2 4.0 7.0 20 44
+ 0.380373 2 7 tcp 1040 ------- 2 4.0 7.0 20 44
- 0.380373 2 7 tcp 1040 ------- 2 4.0 7.0 20 44
r 0.380587 1 2 ack 40 ------- 3 6.2 5.0 5 52
+ 0.380587 2 5 ack 40 ------- 3 6.2 5.0 5 52
- 0.380587 2 5 ack 40 ------- 3 6.2 5.0 5 52
r 0.383493 4 1 tcp 1040 ------- 2 4.0 7.0 22 48
+ 0.383493 1 2 tcp 1040 ------- 2 4.0 7.0 22 48
r 0.38352 7 2 ack 40 ------- 2 7.0 4.0 16 61
+ 0.38352 2 1 ack 40 ------- 2 7.0 4.0 16 61
- 0.38352 2 1 ack 40 ------- 2 7.0 4.0 16 61
- 0.384133 1 2 ack 40 ------- 3 6.2 5.0 6 58
- 0.384347 1 2 tcp 1040 ------- 2 4.0 7.0 22 48
r 0.3844 2 7 tcp 1040 ------- 2 4.0 7.0 18 41
+ 0.3844 7 2 ack 40 ------- 2 7.0 4.0 18 65
- 0.3844 7 2 ack 40 ------- 2 7.0 4.0 18 65
- 0.384587 4 1 tcp 1040 ------- 2 4.0 7.0 25 53
- 0.384827 5 2 tcp 1040 ------- 3 5.0 6.2 8 64
r 0.38504 2 5 ack 40 ------- 3 6.2 5.0 4 49
+ 0.38504 5 2 tcp 1040 ------- 3 5.0 6.2 9 66
+ 0.38504 5 2 tcp 1040 ------- 3 5.0 6.2 10 67
r 0.385733 2 1 ack 40 ------- 2 7.0 4.0 16 61
+ 0.385733 1 4 ack 40 ------- 2 7.0 4.0 16 61
- 0.385733 1 4 ack 40 ------- 2 7.0 4.0 16 61
r 0.386133 1 2 tcp 1040 ------- 2 4.0 7.0 21 47
+ 0.386133 2 7 tcp 1040 ------- 2 4.0 7.0 21 47
- 0.386133 2 7 tcp 1040 ------- 2 4.0 7.0 21 47
r 0.386347 1 2 ack 40 ------- 3 6.2 5.0 6 58
+ 0.386347 2 5 ack 40 ------- 3 6.2 5.0 6 58
- 0.386347 2 5 ack 40 ------- 3 6.2 5.0 6 58
r 0.38904 4 1 tcp 1040 ------- 2 4.0 7.0 23 50
+ 0.38904 1 2 tcp 1040 ------- 2 4.0 7.0 23 50
r 0.389067 7 2 ack 40 ------- 2 7.0 4.0 17 62
+ 0.389067 2 1 ack 40 ------- 2 7.0 4.0 17 62
- 0.389067 2 1 ack 40 ------- 2 7.0 4.0 17 62
- 0.389893 1 2 tcp 1040 ------- 2 4.0 7.0 23 50
- 0.390133 4 1 tcp 1040 ------- 2 4.0 7.0 26 54
r 0.39016 2 7 tcp 1040 ------- 2 4.0 7.0 19 43
+ 0.39016 7 2 ack 40 ------- 2 7.0 4.0 19 68
- 0.39016 7 2 ack 40 ------- 2 7.0 4.0 19 68
- 0.390373 5 2 tcp 1040 ------- 3 5.0 6.2 9 66
r 0.3904 1 4 ack 40 ------- 2 7.0 4.0 15 57
+ 0.3904 4 1 tcp 1040 ------- 2 4.0 7.0 31 69
+ 0.3904 4 1 tcp 1040 ------- 2 4.0 7.0 32 70
r 0.3908 2 5 ack 40 ------- 3 6.2 5.0 5 52
+ 0.3908 5 2 tcp 1040 ------- 3 5.0 6.2 11 71
+ 0.3908 5 2 tcp 1040 ------- 3 5.0 6.2 12 72
r 0.39128 2 1 ack 40 ------- 2 7.0 4.0 17 62
+ 0.39128 1 4 ack 40 ------- 2 7.0 4.0 17 62
- 0.39128 1 4 ack 40 ------- 2 7.0 4.0 17 62
r 0.391893 1 2 tcp 1040 ------- 2 4.0 7.0 22 48
+ 0.391893 2 7 tcp 1040 ------- 2 4.0 7.0 22 48
- 0.391893 2 7 tcp 1040 ------- 2 4.0 7.0 22 48
r 0.394587 4 1 tcp 1040 ------- 2 4.0 7.0 24 51
+ 0.394587 1 2 tcp 1040 ------- 2 4.0 7.0 24 51
r 0.394613 7 2 ack 40 ------- 2 7.0 4.0 18 65
+ 0.394613 2 1 ack 40 ------- 2 7.0 4.0 18 65
- 0.394613 2 1 ack 40 ------- 2 7.0 4.0 18 65
r 0.394827 5 2 tcp 1040 ------- 3 5.0 6.2 7 63
+ 0.394827 2 1 tcp 1040 ------- 3 5.0 6.2 7 63
- 0.394827 2 1 tcp 1040 ------- 3 5.0 6.2 7 63
- 0.39544 1 2 tcp 1040 ------- 2 4.0 7.0 24 51
- 0.39568 4 1 tcp 1040 ------- 2 4.0 7.0 27 55
r 0.39592 2 7 tcp 1040 ------- 2 4.0 7.0 20 44
+ 0.39592 7 2 ack 40 ------- 2 7.0 4.0 20 73
- 0.39592 7 2 ack 40 ------- 2 7.0 4.0 20 73
- 0.39592 5 2 tcp 1040 ------- 3 5.0 6.2 10 67
r 0.395947 1 4 ack 40 ------- 2 7.0 4.0 16 61
+ 0.395947 4 1 tcp 1040 ------- 2 4.0 7.0 33 74
+ 0.395947 4 1 tcp 1040 ------- 2 4.0 7.0 34 75
r 0.39656 2 5 ack 40 ------- 3 6.2 5.0 6 58
+ 0.39656 5 2 tcp 1040 ------- 3 5.0 6.2 13 76
+ 0.39656 5 2 tcp 1040 ------- 3 5.0 6.2 14 77
r 0.396827 2 1 ack 40 ------- 2 7.0 4.0 18 65
+ 0.396827 1 4 ack 40 ------- 2 7.0 4.0 18 65
- 0.396827 1 4 ack 40 ------- 2 7.0 4.0 18 65
r 0.39744 1 2 tcp 1040 ------- 2 4.0 7.0 23 50
+ 0.39744 2 7 tcp 1040 ------- 2 4.0 7.0 23 50
- 0.39744 2 7 tcp 1040 ------- 2 4.0 7.0 23 50
r 0.400133 4 1 tcp 1040 ------- 2 4.0 7.0 25 53
+ 0.400133 1 2 tcp 1040 ------- 2 4.0 7.0 25 53
r 0.400373 5 2 tcp 1040 ------- 3 5.0 6.2 8 64
+ 0.400373 2 1 tcp 1040 ------- 3 5.0 6.2 8 64
r 0.400373 7 2 ack 40 ------- 2 7.0 4.0 19 68
+ 0.400373 2 1 ack 40 ------- 2 7.0 4.0 19 68
- 0.400373 2 1 tcp 1040 ------- 3 5.0 6.2 8 64
- 0.400987 1 2 tcp 1040 ------- 2 4.0 7.0 25 53
- 0.401227 4 1 tcp 1040 ------- 2 4.0 7.0 28 56
- 0.401467 5 2 tcp 1040 ------- 3 5.0 6.2 11 71
r 0.401493 1 4 ack 40 ------- 2 7.0 4.0 17 62
+ 0.401493 4 1 tcp 1040 ------- 2 4.0 7.0 35 78
+ 0.401493 4 1 tcp 1040 ------- 2 4.0 7.0 36 79
r 0.40168 2 7 tcp 1040 ------- 2 4.0 7.0 21 47
+ 0.40168 7 2 ack 40 ------- 2 7.0 4.0 21 80
- 0.40168 7 2 ack 40 ------- 2 7.0 4.0 21 80
r 0.402373 2 1 tcp 1040 ------- 3 5.0 6.2 7 63
+ 0.402373 1 6 tcp 1040 ------- 3 5.0 6.2 7 63
- 0.402373 1 6 tcp 1040 ------- 3 5.0 6.2 7 63
r 0.402987 1 2 tcp 1040 ------- 2 4.0 7.0 24 51
+ 0.402987 2 7 tcp 1040 ------- 2 4.0 7.0 24 51
- 0.402987 2 7 tcp 1040 ------- 2 4.0 7.0 24 51
r 0.40568 4 1 tcp 1040 ------- 2 4.0 7.0 26 54
+ 0.40568 1 2 tcp 1040 ------- 2 4.0 7.0 26 54
r 0.40592 5 2 tcp 1040 ------- 3 5.0 6.2 9 66
+ 0.40592 2 1 tcp 1040 ------- 3 5.0 6.2 9 66
- 0.40592 2 1 ack 40 ------- 2 7.0 4.0 19 68
r 0.406133 7 2 ack 40 ------- 2 7.0 4.0 20 73
+ 0.406133 2 1 ack 40 ------- 2 7.0 4.0 20 73
- 0.406133 2 1 tcp 1040 ------- 3 5.0 6.2 9 66
- 0.406533 1 2 tcp 1040 ------- 2 4.0 7.0 26 54
- 0.406773 4 1 tcp 1040 ------- 2 4.0 7.0 29 59
- 0.407013 5 2 tcp 1040 ------- 3 5.0 6.2 12 72
r 0.40704 1 4 ack 40 ------- 2 7.0 4.0 18 65
+ 0.40704 4 1 tcp 1040 ------- 2 4.0 7.0 37 81
+ 0.40704 4 1 tcp 1040 ------- 2 4.0 7.0 38 82
r 0.40744 2 7 tcp 1040 ------- 2 4.0 7.0 22 48
+ 0.40744 7 2 ack 40 ------- 2 7.0 4.0 22 83
- 0.40744 7 2 ack 40 ------- 2 7.0 4.0 22 83
r 0.40792 2 1 tcp 1040 ------- 3 5.0 6.2 8 64
+ 0.40792 1 6 tcp 1040 ------- 3 5.0 6.2 8 64
- 0.40792 1 6 tcp 1040 ------- 3 5.0 6.2 8 64
r 0.408133 2 1 ack 40 ------- 2 7.0 4.0 19 68
+ 0.408133 1 4 ack 40 ------- 2 7.0 4.0 19 68
- 0.408133 1 4 ack 40 ------- 2 7.0 4.0 19 68
r 0.408533 1 2 tcp 1040 ------- 2 4.0 7.0 25 53
+ 0.408533 2 7 tcp 1040 ------- 2 4.0 7.0 25 53
- 0.408533 2 7 tcp 1040 ------- 2 4.0 7.0 25 53
r 0.411227 4 1 tcp 1040 ------- 2 4.0 7.0 27 55
+ 0.411227 1 2 tcp 1040 ------- 2 4.0 7.0 27 55
r 0.411467 5 2 tcp 1040 ------- 3 5.0 6.2 10 67
+ 0.411467 2 1 tcp 1040 ------- 3 5.0 6.2 10 67
- 0.41168 2 1 ack 40 ------- 2 7.0 4.0 20 73
r 0.411893 7 2 ack 40 ------- 2 7.0 4.0 21 80
+ 0.411893 2 1 ack 40 ------- 2 7.0 4.0 21 80
- 0.411893 2 1 tcp 1040 ------- 3 5.0 6.2 10 67
- 0.41208 1 2 tcp 1040 ------- 2 4.0 7.0 27 55
- 0.41232 4 1 tcp 1040 ------- 2 4.0 7.0 30 60
- 0.41256 5 2 tcp 1040 ------- 3 5.0 6.2 13 76
r 0.412987 2 7 tcp 1040 ------- 2 4.0 7.0 23 50
+ 0.412987 7 2 ack 40 ------- 2 7.0 4.0 23 84
- 0.412987 7 2 ack 40 ------- 2 7.0 4.0 23 84
r 0.41368 2 1 tcp 1040 ------- 3 5.0 6.2 9 66
+ 0.41368 1 6 tcp 1040 ------- 3 5.0 6.2 9 66
- 0.41368 1 6 tcp 1040 ------- 3 5.0 6.2 9 66
r 0.413893 2 1 ack 40 ------- 2 7.0 4.0 20 73
+ 0.413893 1 4 ack 40 ------- 2 7.0 4.0 20 73
- 0.413893 1 4 ack 40 ------- 2 7.0 4.0 20 73
r 0.41408 1 2 tcp 1040 ------- 2 4.0 7.0 26 54
+ 0.41408 2 7 tcp 1040 ------- 2 4.0 7.0 26 54
- 0.41408 2 7 tcp 1040 ------- 2 4.0 7.0 26 54
r 0.416773 4 1 tcp 1040 ------- 2 4.0 7.0 28 56
+ 0.416773 1 2 tcp 1040 ------- 2 4.0 7.0 28 56
r 0.417013 5 2 tcp 1040 ------- 3 5.0 6.2 11 71
+ 0.417013 2 1 tcp 1040 ------- 3 5.0 6.2 11 71
- 0.41744 2 1 ack 40 ------- 2 7.0 4.0 21 80
- 0.417627 1 2 tcp 1040 ------- 2 4.0 7.0 28 56
r 0.417653 7 2 ack 40 ------- 2 7.0 4.0 22 83
+ 0.417653 2 1 ack 40 ------- 2 7.0 4.0 22 83
- 0.417653 2 1 tcp 1040 ------- 3 5.0 6.2 11 71
- 0.417867 4 1 tcp 1040 ------- 2 4.0 7.0 31 69
r 0.41792 1 6 tcp 1040 ------- 3 5.0 6.2 7 63
+ 0.41792 6 1 ack 40 ------- 3 6.2 5.0 7 85
- 0.41792 6 1 ack 40 ------- 3 6.2 5.0 7 85
- 0.418107 5 2 tcp 1040 ------- 3 5.0 6.2 14 77
r 0.418347 1 4 ack 40 ------- 2 7.0 4.0 19 68
+ 0.418347 4 1 tcp 1040 ------- 2 4.0 7.0 39 86
r 0.418533 2 7 tcp 1040 ------- 2 4.0 7.0 24 51
+ 0.418533 7 2 ack 40 ------- 2 7.0 4.0 24 87
- 0.418533 7 2 ack 40 ------- 2 7.0 4.0 24 87
r 0.41944 2 1 tcp 1040 ------- 3 5.0 6.2 10 67
+ 0.41944 1 6 tcp 1040 ------- 3 5.0 6.2 10 67
- 0.41944 1 6 tcp 1040 ------- 3 5.0 6.2 10 67
r 0.419627 1 2 tcp 1040 ------- 2 4.0 7.0 27 55
+ 0.419627 2 7 tcp 1040 ------- 2 4.0 7.0 27 55
- 0.419627 2 7 tcp 1040 ------- 2 4.0 7.0 27 55
r 0.419653 2 1 ack 40 ------- 2 7.0 4.0 21 80
+ 0.419653 1 4 ack 40 ------- 2 7.0 4.0 21 80
- 0.419653 1 4 ack 40 ------- 2 7.0 4.0 21 80
r 0.42232 4 1 tcp 1040 ------- 2 4.0 7.0 29 59
+ 0.42232 1 2 tcp 1040 ------- 2 4.0 7.0 29 59
r 0.42256 5 2 tcp 1040 ------- 3 5.0 6.2 12 72
+ 0.42256 2 1 tcp 1040 ------- 3 5.0 6.2 12 72
- 0.423173 1 2 tcp 1040 ------- 2 4.0 7.0 29 59
r 0.4232 7 2 ack 40 ------- 2 7.0 4.0 23 84
+ 0.4232 2 1 ack 40 ------- 2 7.0 4.0 23 84
- 0.4232 2 1 ack 40 ------- 2 7.0 4.0 22 83